-catch_rsh /opt/sge/default/spool/node106/active_jobs/15590.1/pe_hostfile
node106
node106
node106
node106
node106
node106
node106
node106
node106
node106
node106
node106
node106
node106
node106
node106
Got 16 slots.
node106
node106
node106
node106
node106
node106
node106
node106
node106
node106
node106
node106
node106
node106
node106
node106
 Entering Gaussian System, Link 0=/opt/gaussian/g09/g09
 Initial command:
 /opt/gaussian/g09/l1.exe "/work/Gau-132740.inp" -scrdir="/work/"
 Entering Link 1 = /opt/gaussian/g09/l1.exe PID=    132741.
  
 Copyright (c) 1988,1990,1992,1993,1995,1998,2003,2009,2013,
            Gaussian, Inc.  All Rights Reserved.
  
 This is part of the Gaussian(R) 09 program.  It is based on
 the Gaussian(R) 03 system (copyright 2003, Gaussian, Inc.),
 the Gaussian(R) 98 system (copyright 1998, Gaussian, Inc.),
 the Gaussian(R) 94 system (copyright 1995, Gaussian, Inc.),
 the Gaussian 92(TM) system (copyright 1992, Gaussian, Inc.),
 the Gaussian 90(TM) system (copyright 1990, Gaussian, Inc.),
 the Gaussian 88(TM) system (copyright 1988, Gaussian, Inc.),
 the Gaussian 86(TM) system (copyright 1986, Carnegie Mellon
 University), and the Gaussian 82(TM) system (copyright 1983,
 Carnegie Mellon University). Gaussian is a federally registered
 trademark of Gaussian, Inc.
  
 This software contains proprietary and confidential information,
 including trade secrets, belonging to Gaussian, Inc.
  
 This software is provided under written license and may be
 used, copied, transmitted, or stored only in accord with that
 written license.
  
 The following legend is applicable only to US Government
 contracts under FAR:
  
                    RESTRICTED RIGHTS LEGEND
  
 Use, reproduction and disclosure by the US Government is
 subject to restrictions as set forth in subparagraphs (a)
 and (c) of the Commercial Computer Software - Restricted
 Rights clause in FAR 52.227-19.
  
 Gaussian, Inc.
 340 Quinnipiac St., Bldg. 40, Wallingford CT 06492
  
  
 ---------------------------------------------------------------
 Warning -- This program may not be used in any manner that
 competes with the business of Gaussian, Inc. or will provide
 assistance to any competitor of Gaussian, Inc.  The licensee
 of this program is prohibited from giving any competitor of
 Gaussian, Inc. access to this program.  By using this program,
 the user acknowledges that Gaussian, Inc. is engaged in the
 business of creating and licensing software in the field of
 computational chemistry and represents and warrants to the
 licensee that it is not a competitor of Gaussian, Inc. and that
 it will not use this program in any manner prohibited above.
 ---------------------------------------------------------------
  

 Cite this work as:
 Gaussian 09, Revision D.01,
 M. J. Frisch, G. W. Trucks, H. B. Schlegel, G. E. Scuseria, 
 M. A. Robb, J. R. Cheeseman, G. Scalmani, V. Barone, B. Mennucci, 
 G. A. Petersson, H. Nakatsuji, M. Caricato, X. Li, H. P. Hratchian, 
 A. F. Izmaylov, J. Bloino, G. Zheng, J. L. Sonnenberg, M. Hada, 
 M. Ehara, K. Toyota, R. Fukuda, J. Hasegawa, M. Ishida, T. Nakajima, 
 Y. Honda, O. Kitao, H. Nakai, T. Vreven, J. A. Montgomery, Jr., 
 J. E. Peralta, F. Ogliaro, M. Bearpark, J. J. Heyd, E. Brothers, 
 K. N. Kudin, V. N. Staroverov, T. Keith, R. Kobayashi, J. Normand, 
 K. Raghavachari, A. Rendell, J. C. Burant, S. S. Iyengar, J. Tomasi, 
 M. Cossi, N. Rega, J. M. Millam, M. Klene, J. E. Knox, J. B. Cross, 
 V. Bakken, C. Adamo, J. Jaramillo, R. Gomperts, R. E. Stratmann, 
 O. Yazyev, A. J. Austin, R. Cammi, C. Pomelli, J. W. Ochterski, 
 R. L. Martin, K. Morokuma, V. G. Zakrzewski, G. A. Voth, 
 P. Salvador, J. J. Dannenberg, S. Dapprich, A. D. Daniels, 
 O. Farkas, J. B. Foresman, J. V. Ortiz, J. Cioslowski, 
 and D. J. Fox, Gaussian, Inc., Wallingford CT, 2013.
 
 ******************************************
 Gaussian 09:  ES64L-G09RevD.01 24-Apr-2013
                10-Mar-2020 
 ******************************************
 %nproc=20
 Will use up to   20 processors via shared memory.
 %mem=2gb
 %chk=APA-12.chk
 ----------------------------------------------------------------------
 #p PW91PW91/Gen Pseudo=read 5d TD=(nstate=20) scf(conver=7) gfinput gf
 print
 ----------------------------------------------------------------------
 1/38=1/1;
 2/12=2,17=6,18=5,40=1/2;
 3/5=7,8=1,11=9,16=1,17=8,24=110,25=1,30=1,74=608/1,2,8,3;
 4//1;
 5/5=2,6=7,38=5/2;
 8/6=1,10=1,108=20/1;
 9/41=20,42=1,70=2/14;
 6/7=2,8=2,9=2,10=2/1;
 99/5=1,9=1/99;
 Leave Link    1 at Tue Mar 10 21:17:48 2020, MaxMem=   268435456 cpu:         2.4
 (Enter /opt/gaussian/g09/l101.exe)
 ------
 APA-12
 ------
 Symbolic Z-matrix:
 Charge =  2 Multiplicity = 2
 S                     3.27077  -1.48256  -0.84141 
 O                     2.49869  -2.11871  -2.08118 
 O                     2.12243  -0.59501  -0.22999 
 O                     0.06038  -1.10392   3.13548 
 N                    -1.12088  -1.09067  -1.51709 
 N                    -2.20208  -0.75586   3.2173 
 C                    -2.02337  -0.92748  -0.51863 
 C                    -3.41235  -0.74952  -0.81457 
 C                    -3.91456  -0.59706   1.549 
 C                    -2.53868  -0.76715   1.86861 
 C                    -1.59729  -0.93019   0.83984 
 C                    -4.33227  -0.58988   0.21639 
 C                    -0.94861  -0.91619   3.8143 
 C                    -0.91574  -0.81079   5.31141 
 H                    -0.54143  -1.05184   1.07644 
 H                    -5.39104  -0.45856  -0.01461 
 H                    -1.57444  -1.03997  -2.44397 
 H                    -2.98059  -0.61135   3.86953 
 H                    -0.76022   0.24576   5.59038 
 H                    -0.06298  -1.38484   5.69503 
 H                    -1.84304  -1.16561   5.78306 
 C                     4.43589  -0.31176  -1.60938 
 C                     5.09753  -0.6897   -2.78582 
 C                     4.73637   0.87154  -0.92364 
 C                     6.07415   0.17462  -3.305 
 H                     4.85582  -1.62482  -3.2955 
 C                     5.71601   1.72266  -1.4585 
 H                     4.21323   1.13586  -0.00223 
 C                     6.38449   1.37311  -2.6428 
 H                     6.59313  -0.09332  -4.2281 
 H                     5.95637   2.65602  -0.94506 
 H                    -3.74826  -0.74752  -1.85413 
 H                    -4.64932  -0.47093   2.34759 
 H                     7.15093   2.03633  -3.04933 
 Co                    0.72672  -1.43339  -1.58092 
 
 NAtoms=     35 NQM=       35 NQMF=       0 NMMI=      0 NMMIF=      0
                NMic=       0 NMicF=      0.
                    Isotopes and Nuclear Properties:
 (Nuclear quadrupole moments (NQMom) in fm**2, nuclear magnetic moments (NMagM)
  in nuclear magnetons)

  Atom         1           2           3           4           5           6           7           8           9          10
 IAtWgt=          32          16          16          16          14          14          12          12          12          12
 AtmWgt=  31.9720718  15.9949146  15.9949146  15.9949146  14.0030740  14.0030740  12.0000000  12.0000000  12.0000000  12.0000000
 NucSpn=           0           0           0           0           2           2           0           0           0           0
 AtZEff=   0.0000000   0.0000000   0.0000000   0.0000000   0.0000000   0.0000000   0.0000000   0.0000000   0.0000000   0.0000000
 NQMom=    0.0000000   0.0000000   0.0000000   0.0000000   2.0440000   2.0440000   0.0000000   0.0000000   0.0000000   0.0000000
 NMagM=    0.0000000   0.0000000   0.0000000   0.0000000   0.4037610   0.4037610   0.0000000   0.0000000   0.0000000   0.0000000
 AtZNuc=  16.0000000   8.0000000   8.0000000   8.0000000   7.0000000   7.0000000   6.0000000   6.0000000   6.0000000   6.0000000

  Atom        11          12          13          14          15          16          17          18          19          20
 IAtWgt=          12          12          12          12           1           1           1           1           1           1
 AtmWgt=  12.0000000  12.0000000  12.0000000  12.0000000   1.0078250   1.0078250   1.0078250   1.0078250   1.0078250   1.0078250
 NucSpn=           0           0           0           0           1           1           1           1           1           1
 AtZEff=   0.0000000   0.0000000   0.0000000   0.0000000   0.0000000   0.0000000   0.0000000   0.0000000   0.0000000   0.0000000
 NQMom=    0.0000000   0.0000000   0.0000000   0.0000000   0.0000000   0.0000000   0.0000000   0.0000000   0.0000000   0.0000000
 NMagM=    0.0000000   0.0000000   0.0000000   0.0000000   2.7928460   2.7928460   2.7928460   2.7928460   2.7928460   2.7928460
 AtZNuc=   6.0000000   6.0000000   6.0000000   6.0000000   1.0000000   1.0000000   1.0000000   1.0000000   1.0000000   1.0000000

  Atom        21          22          23          24          25          26          27          28          29          30
 IAtWgt=           1          12          12          12          12           1          12           1          12           1
 AtmWgt=   1.0078250  12.0000000  12.0000000  12.0000000  12.0000000   1.0078250  12.0000000   1.0078250  12.0000000   1.0078250
 NucSpn=           1           0           0           0           0           1           0           1           0           1
 AtZEff=   0.0000000   0.0000000   0.0000000   0.0000000   0.0000000   0.0000000   0.0000000   0.0000000   0.0000000   0.0000000
 NQMom=    0.0000000   0.0000000   0.0000000   0.0000000   0.0000000   0.0000000   0.0000000   0.0000000   0.0000000   0.0000000
 NMagM=    2.7928460   0.0000000   0.0000000   0.0000000   0.0000000   2.7928460   0.0000000   2.7928460   0.0000000   2.7928460
 AtZNuc=   1.0000000   6.0000000   6.0000000   6.0000000   6.0000000   1.0000000   6.0000000   1.0000000   6.0000000   1.0000000

  Atom        31          32          33          34          35
 IAtWgt=           1           1           1           1          59
 AtmWgt=   1.0078250   1.0078250   1.0078250   1.0078250  58.9331978
 NucSpn=           1           1           1           1           7
 AtZEff=   0.0000000   0.0000000   0.0000000   0.0000000   0.0000000
 NQMom=    0.0000000   0.0000000   0.0000000   0.0000000  42.0000000
 NMagM=    2.7928460   2.7928460   2.7928460   2.7928460   4.6270000
 AtZNuc=   1.0000000   1.0000000   1.0000000   1.0000000  27.0000000
 Leave Link  101 at Tue Mar 10 21:17:48 2020, MaxMem=   268435456 cpu:         3.1
 (Enter /opt/gaussian/g09/l202.exe)
                          Input orientation:                          
 ---------------------------------------------------------------------
 Center     Atomic      Atomic             Coordinates (Angstroms)
 Number     Number       Type             X           Y           Z
 ---------------------------------------------------------------------
      1         16           0        3.270769   -1.482560   -0.841411
      2          8           0        2.498693   -2.118714   -2.081178
      3          8           0        2.122429   -0.595005   -0.229990
      4          8           0        0.060381   -1.103924    3.135482
      5          7           0       -1.120878   -1.090666   -1.517091
      6          7           0       -2.202079   -0.755861    3.217302
      7          6           0       -2.023373   -0.927476   -0.518632
      8          6           0       -3.412350   -0.749519   -0.814568
      9          6           0       -3.914558   -0.597061    1.549002
     10          6           0       -2.538679   -0.767149    1.868608
     11          6           0       -1.597286   -0.930193    0.839843
     12          6           0       -4.332269   -0.589885    0.216392
     13          6           0       -0.948605   -0.916191    3.814297
     14          6           0       -0.915738   -0.810791    5.311412
     15          1           0       -0.541427   -1.051843    1.076437
     16          1           0       -5.391038   -0.458562   -0.014612
     17          1           0       -1.574440   -1.039975   -2.443967
     18          1           0       -2.980587   -0.611348    3.869530
     19          1           0       -0.760218    0.245763    5.590377
     20          1           0       -0.062980   -1.384844    5.695035
     21          1           0       -1.843040   -1.165611    5.783056
     22          6           0        4.435894   -0.311755   -1.609383
     23          6           0        5.097530   -0.689697   -2.785818
     24          6           0        4.736371    0.871543   -0.923635
     25          6           0        6.074149    0.174620   -3.305000
     26          1           0        4.855818   -1.624820   -3.295504
     27          6           0        5.716013    1.722659   -1.458504
     28          1           0        4.213226    1.135858   -0.002233
     29          6           0        6.384494    1.373112   -2.642798
     30          1           0        6.593134   -0.093316   -4.228100
     31          1           0        5.956371    2.656023   -0.945062
     32          1           0       -3.748257   -0.747518   -1.854129
     33          1           0       -4.649319   -0.470930    2.347593
     34          1           0        7.150931    2.036329   -3.049327
     35         27           0        0.726717   -1.433392   -1.580924
 ---------------------------------------------------------------------
                    Distance matrix (angstroms):
                    1          2          3          4          5
     1  S    0.000000
     2  O    1.593052   0.000000
     3  O    1.574888   2.426965   0.000000
     4  O    5.125001   5.847111   3.979629   0.000000
     5  N    4.460570   3.804783   3.524393   4.800206   0.000000
     6  N    6.852249   7.213080   5.532727   2.290539   4.867809
     7  C    5.332940   4.930485   4.169116   4.210192   1.355746
     8  C    6.723254   6.198340   5.567709   5.271467   2.420901
     9  C    7.624114   7.524854   6.293650   4.309753   4.177227
    10  C    6.450248   6.542374   5.114653   2.910928   3.684804
    11  C    5.179738   5.169332   3.884994   2.836900   2.409949
    12  C    7.728002   7.367374   6.470117   5.299122   3.683582
    13  C    6.308686   6.934447   5.088287   1.230482   5.337023
    14  C    7.472305   8.247387   6.323303   2.402791   6.837314
    15  H    4.289114   4.511217   3.001930   2.145822   2.657754
    16  H    8.761226   8.323140   7.517792   6.329104   4.570697
    17  H    5.122511   4.229150   4.332036   5.814377   1.033145
    18  H    7.876003   8.228341   6.545770   3.166850   5.718737
    19  H    7.784848   8.663949   6.549291   2.919169   7.241009
    20  H    7.338158   8.220111   6.364415   2.577876   7.295234
    21  H    8.374669   9.033562   7.225459   3.261360   7.336163
    22  C    1.821560   2.690806   2.708334   6.502799   5.611857
    23  C    2.783236   3.048370   3.923321   7.785002   6.359169
    24  C    2.774265   3.910082   3.076458   6.499522   6.205627
    25  C    4.083436   4.420521   5.065975   8.903926   7.521036
    26  H    2.924926   2.697138   4.234302   8.038976   6.258512
    27  C    4.078412   5.049258   4.449118   7.815398   7.393328
    28  H    2.906640   4.225384   2.723819   5.666392   5.975354
    29  C    4.592945   5.254304   5.278288   8.917323   7.979225
    30  H    4.943457   5.047371   6.018619   9.895481   8.237127
    31  H    4.934680   6.003699   5.077364   8.096341   8.028222
    32  H    7.129700   6.399697   6.093115   6.287207   2.671043
    33  H    8.597728   8.568739   7.246785   4.816920   5.269701
    34  H    5.684464   6.312290   6.337067   9.919121   8.974891
    35  Co   2.649811   1.964643   2.115639   4.774624   1.880197
                    6          7          8          9         10
     6  N    0.000000
     7  C    3.744141   0.000000
     8  C    4.209605   1.431259   0.000000
     9  C    2.396043   2.821501   2.421141   0.000000
    10  C    1.390108   2.447481   2.821887   1.422716   0.000000
    11  C    2.459365   1.423732   2.462555   2.446147   1.403981
    12  C    3.683845   2.446473   1.390904   1.396561   2.445037
    13  C    1.397607   4.464250   5.246352   3.745702   2.517191
    14  C    2.458250   5.935477   6.615472   4.816050   3.806408
    15  H    2.725559   2.180797   3.451013   3.436299   2.167394
    16  H    4.550067   3.437307   2.154018   2.155009   3.431865
    17  H    5.703036   1.980179   2.473301   4.649315   4.427471
    18  H    1.025846   4.502462   4.705985   2.501471   2.055054
    19  H    2.951897   6.347601   7.003407   5.195471   4.247408
    20  H    3.333246   6.531615   7.348255   5.713567   4.599149
    21  H    2.622956   6.308764   6.794447   4.747805   3.995696
    22  C    8.219295   6.579589   7.900525   8.932348   7.806950
    23  C    9.451250   7.476893   8.735414  10.000849   8.943230
    24  C    8.242445   7.006756   8.309114   9.116430   7.962932
    25  C   10.578382   8.634137   9.851393  11.132435  10.091281
    26  H    9.642907   7.451213   8.676623  10.071992   9.059925
    27  C    9.523781   8.234359   9.479099  10.352492   9.241685
    28  H    7.422947   6.589323   7.897084   8.454005   7.260144
    29  C   10.611435   8.972013  10.189511  11.292619  10.225288
    30  H   11.542476   9.418077  10.592096  12.001678  11.000632
    31  H    9.773768   8.757832   9.969337  10.688225   9.581269
    32  H    5.301900   2.188872   1.092485   3.410512   3.914363
    33  H    2.612768   3.913984   3.406900   1.092488   2.184484
    34  H   11.599387   9.967769  11.150695  12.268840  11.222037
    35  Co   5.662143   2.991222   4.264604   5.660152   4.796453
                   11         12         13         14         15
    11  C    0.000000
    12  C    2.825709   0.000000
    13  C    3.044398   4.949805   0.000000
    14  C    4.524787   6.138462   1.501181   0.000000
    15  H    1.088858   3.914532   2.771295   4.258313   0.000000
    16  H    3.917280   1.091605   5.882617   6.965552   5.006106
    17  H    3.285724   3.858201   6.290696   7.786676   3.668855
    18  H    3.345772   3.895243   2.055463   2.526342   3.734288
    19  H    4.964990   6.506732   2.130748   1.103772   4.701840
    20  H    5.112112   6.991017   2.130996   1.097223   4.655239
    21  H    4.954914   6.124987   2.176749   1.099198   4.884609
    22  C    6.540675   8.960552   7.666451   8.762785   5.703954
    23  C    7.617337   9.896683   8.953690  10.086585   6.844414
    24  C    6.816987   9.256115   7.613340   8.582097   5.962789
    25  C    8.789269  11.012639  10.059490  11.138766   8.029138
    26  H    7.695853   9.890675   9.205583  10.394831   6.969392
    27  C    8.111989  10.446105   8.898488   9.809701   7.299270
    28  H    6.224123   8.720749   6.739533   7.637443   5.343808
    29  C    9.007931  11.263984  10.035404  11.015093   8.226877
    30  H    9.667853  11.805275  11.055999  12.161423   8.941971
    31  H    8.550121  10.850853   9.115421   9.919080   7.749588
    32  H    3.452178   2.157076   6.324362   7.705333   4.354835
    33  H    3.434987   2.157936   4.005591   4.779054   4.339132
    34  H   10.022834  12.223985  11.019492  11.961572   9.259110
    35  Co   3.393274   5.434628   5.672972   7.112635   2.969063
                   16         17         18         19         20
    16  H    0.000000
    17  H    4.561384   0.000000
    18  H    4.573859   6.482377   0.000000
    19  H    7.304551   8.177210   2.937003   0.000000
    20  H    7.864240   8.285336   3.527491   1.776506   0.000000
    21  H    6.833825   8.232366   2.294079   1.789303   1.795669
    22  C    9.956578   6.111543   9.225640   8.896457   8.645571
    23  C   10.850948   6.689898  10.466889  10.263963   9.951832
    24  C   10.254751   6.766952   9.204609   8.546136   8.481264
    25  C   11.944793   7.792146  11.579286  11.217904  11.004404
    26  H   10.822314   6.512709  10.666493  10.676976  10.250949
    27  C   11.410921   7.858370  10.462618   9.685531   9.707030
    28  H    9.735718   6.647811   8.354293   7.536889   7.556370
    29  C   12.203506   8.319084  11.578137  10.959152  10.894756
    30  H   12.708551   8.413594  12.549745  12.271481  12.018340
    31  H   11.803816   8.521751  10.664203   9.676460   9.831179
    32  H    2.483153   2.271326   5.776516   8.083047   8.424804
    33  H    2.475947   5.721690   2.262891   5.114137   5.751096
    34  H   13.142868   9.271581  12.551034  11.850608  11.840980
    35  Co   6.389879   2.488964   6.642838   7.513860   7.318849
                   21         22         23         24         25
    21  H    0.000000
    22  C    9.736644   0.000000
    23  C   11.037374   1.401643   0.000000
    24  C    9.613447   1.400260   2.456752   0.000000
    25  C   12.127278   2.407396   1.403702   2.818909   0.000000
    26  H   11.291848   2.177953   1.092089   3.445556   2.173109
    27  C   10.859170   2.408383   2.822011   1.403631   2.436028
    28  H    8.685890   2.174418   3.444270   1.092028   3.910919
    29  C   12.047094   2.775566   2.435552   2.433805   1.403997
    30  H   13.135528   3.399865   2.161638   3.911267   1.092360
    31  H   10.986504   3.400129   3.914056   2.161766   3.426447
    32  H    7.882338   8.199398   8.894905   8.687698   9.971712
    33  H    4.490009   9.910807  11.018204  10.029673  12.139246
    34  H   13.005958   3.867605   3.423027   3.421315   2.165823
    35  Co   7.804073   3.875162   4.594438   4.671411   5.844072
                   26         27         28         29         30
    26  H    0.000000
    27  C    3.914092   0.000000
    28  H    4.345101   2.173345   0.000000
    29  C    3.427896   1.404138   3.426847   0.000000
    30  H    2.496699   3.426043   5.003278   2.169591   0.000000
    31  H    5.006137   1.092046   2.497676   2.170590   4.329281
    32  H    8.767972   9.789316   8.388196  10.382280  10.630527
    33  H   11.114119  11.257811   9.308498  12.249471  13.029777
    34  H    4.328066   2.165202   4.327326   1.092039   2.497205
    35  Co   4.475032   5.904974   4.609670   6.404256   6.574055
                   31         32         33         34         35
    31  H    0.000000
    32  H   10.324258   0.000000
    33  H   11.536900   4.306145   0.000000
    34  H    2.497785  11.312410  13.215862   0.000000
    35  Co   6.669102   4.535466   6.727654   7.447530   0.000000
 Stoichiometry    C14H14CoN2O3S(2+,2)
 Framework group  C1[X(C14H14CoN2O3S)]
 Deg. of freedom    99
 Full point group                 C1      NOp   1
 Largest Abelian subgroup         C1      NOp   1
 Largest concise Abelian subgroup C1      NOp   1
                         Standard orientation:                         
 ---------------------------------------------------------------------
 Center     Atomic      Atomic             Coordinates (Angstroms)
 Number     Number       Type             X           Y           Z
 ---------------------------------------------------------------------
      1         16           0       -2.259392    0.372367   -1.086333
      2          8           0       -2.129904   -1.174474   -1.444569
      3          8           0       -1.054558    0.522826   -0.083332
      4          8           0        2.425329    2.388280   -0.581235
      5          7           0        1.181326   -2.193303    0.128363
      6          7           0        4.392710    1.464891    0.142185
      7          6           0        2.434335   -1.720198    0.338572
      8          6           0        3.477050   -2.593430    0.784342
      9          6           0        5.049175   -0.752194    0.770365
     10          6           0        4.028564    0.136830    0.332060
     11          6           0        2.727031   -0.344372    0.118474
     12          6           0        4.761369   -2.100907    0.990644
     13          6           0        3.612472    2.538960   -0.294751
     14          6           0        4.302949    3.870529   -0.355650
     15          1           0        1.938689    0.331916   -0.208274
     16          1           0        5.553988   -2.772005    1.326776
     17          1           0        1.117968   -3.199399    0.354518
     18          1           0        5.371320    1.692450    0.349303
     19          1           0        4.197792    4.370912    0.622548
     20          1           0        3.807905    4.499847   -1.105843
     21          1           0        5.372816    3.784223   -0.592656
     22          6           0       -3.761979    0.456446   -0.060058
     23          6           0       -4.871208   -0.321116   -0.420074
     24          6           0       -3.807379    1.399369    0.974139
     25          6           0       -6.058233   -0.163301    0.312349
     26          1           0       -4.815929   -1.040319   -1.240043
     27          6           0       -5.003344    1.542672    1.694773
     28          1           0       -2.931141    2.000481    1.225928
     29          6           0       -6.125196    0.766493    1.362210
     30          1           0       -6.931326   -0.768463    0.057914
     31          1           0       -5.055442    2.264191    2.512857
     32          1           0        3.261617   -3.650877    0.954397
     33          1           0        6.063013   -0.380596    0.936429
     34          1           0       -7.054793    0.888482    1.922135
     35         27           0       -0.417964   -1.446947   -0.519992
 ---------------------------------------------------------------------
 Rotational constants (GHZ):      0.4373952      0.1130693      0.0972770
 Leave Link  202 at Tue Mar 10 21:17:49 2020, MaxMem=   268435456 cpu:         1.1
 (Enter /opt/gaussian/g09/l301.exe)
 General basis read from cards:  (5D, 7F)
 Centers:      35
 SDD
 ****
 Centers:       7      8      9     10     11     12     13     14     22     23
 Centers:      24     25     27     29     15     16     17     18     19     20
 Centers:      21     26     28     30     31     32     33     34      5      6
 Centers:       2      3      4      1
 6-31G(d)
 ****
 ======================================================================================================
                                       Pseudopotential Parameters
 ======================================================================================================
  Center     Atomic      Valence      Angular      Power
  Number     Number     Electrons     Momentum     of R      Exponent        Coefficient   SO-Coeffient
 ======================================================================================================
    1         16
                                   No pseudopotential on this center.
    2          8
                                   No pseudopotential on this center.
    3          8
                                   No pseudopotential on this center.
    4          8
                                   No pseudopotential on this center.
    5          7
                                   No pseudopotential on this center.
    6          7
                                   No pseudopotential on this center.
    7          6
                                   No pseudopotential on this center.
    8          6
                                   No pseudopotential on this center.
    9          6
                                   No pseudopotential on this center.
   10          6
                                   No pseudopotential on this center.
   11          6
                                   No pseudopotential on this center.
   12          6
                                   No pseudopotential on this center.
   13          6
                                   No pseudopotential on this center.
   14          6
                                   No pseudopotential on this center.
   15          1
                                   No pseudopotential on this center.
   16          1
                                   No pseudopotential on this center.
   17          1
                                   No pseudopotential on this center.
   18          1
                                   No pseudopotential on this center.
   19          1
                                   No pseudopotential on this center.
   20          1
                                   No pseudopotential on this center.
   21          1
                                   No pseudopotential on this center.
   22          6
                                   No pseudopotential on this center.
   23          6
                                   No pseudopotential on this center.
   24          6
                                   No pseudopotential on this center.
   25          6
                                   No pseudopotential on this center.
   26          1
                                   No pseudopotential on this center.
   27          6
                                   No pseudopotential on this center.
   28          1
                                   No pseudopotential on this center.
   29          6
                                   No pseudopotential on this center.
   30          1
                                   No pseudopotential on this center.
   31          1
                                   No pseudopotential on this center.
   32          1
                                   No pseudopotential on this center.
   33          1
                                   No pseudopotential on this center.
   34          1
                                   No pseudopotential on this center.
   35         27           17
                                      F and up 
                                                     2        1.0000000        0.00000000    0.00000000
                                      S - F
                                                     2       23.6600000      283.96056600    0.00000000
                                                     2       10.6100000       47.15684600    0.00000000
                                      P - F
                                                     2       25.0400000      182.21223600    0.00000000
                                                     2       10.4400000       35.23335200    0.00000000
                                      D - F
                                                     2       29.5400000      -26.47533300    0.00000000
                                                     2       10.1800000       -1.82578700    0.00000000
 ======================================================================================================
 Ernie: Thresh=  0.10000D-02 Tol=  0.10000D-05 Strict=F.
 AO basis set in the form of general basis input (Overlap normalization):
      1 0
 S   6 1.00       0.000000000000
      0.2191710000D+05  0.1869240849D-02
      0.3301490000D+04  0.1423030646D-01
      0.7541460000D+03  0.6969623166D-01
      0.2127110000D+03  0.2384871083D+00
      0.6798960000D+02  0.4833072195D+00
      0.2305150000D+02  0.3380741536D+00
 SP   6 1.00       0.000000000000
      0.4237350000D+03 -0.2376770499D-02  0.4061009982D-02
      0.1007100000D+03 -0.3169300665D-01  0.3068129986D-01
      0.3215990000D+02 -0.1133170238D+00  0.1304519994D+00
      0.1180790000D+02  0.5609001177D-01  0.3272049985D+00
      0.4631100000D+01  0.5922551243D+00  0.4528509980D+00
      0.1870250000D+01  0.4550060955D+00  0.2560419989D+00
 SP   3 1.00       0.000000000000
      0.2615840000D+01 -0.2503731142D+00 -0.1451048955D-01
      0.9221670000D+00  0.6695676310D-01  0.3102627765D+00
      0.3412870000D+00  0.1054506269D+01  0.7544824565D+00
 SP   1 1.00       0.000000000000
      0.1171670000D+00  0.1000000000D+01  0.1000000000D+01
 D   1 1.00       0.000000000000
      0.6500000000D+00  0.1000000000D+01
 ****
      2 0
 S   6 1.00       0.000000000000
      0.5484671660D+04  0.1831074430D-02
      0.8252349460D+03  0.1395017220D-01
      0.1880469580D+03  0.6844507810D-01
      0.5296450000D+02  0.2327143360D+00
      0.1689757040D+02  0.4701928980D+00
      0.5799635340D+01  0.3585208530D+00
 SP   3 1.00       0.000000000000
      0.1553961625D+02 -0.1107775495D+00  0.7087426823D-01
      0.3599933586D+01 -0.1480262627D+00  0.3397528391D+00
      0.1013761750D+01  0.1130767015D+01  0.7271585773D+00
 SP   1 1.00       0.000000000000
      0.2700058226D+00  0.1000000000D+01  0.1000000000D+01
 D   1 1.00       0.000000000000
      0.8000000000D+00  0.1000000000D+01
 ****
      3 0
 S   6 1.00       0.000000000000
      0.5484671660D+04  0.1831074430D-02
      0.8252349460D+03  0.1395017220D-01
      0.1880469580D+03  0.6844507810D-01
      0.5296450000D+02  0.2327143360D+00
      0.1689757040D+02  0.4701928980D+00
      0.5799635340D+01  0.3585208530D+00
 SP   3 1.00       0.000000000000
      0.1553961625D+02 -0.1107775495D+00  0.7087426823D-01
      0.3599933586D+01 -0.1480262627D+00  0.3397528391D+00
      0.1013761750D+01  0.1130767015D+01  0.7271585773D+00
 SP   1 1.00       0.000000000000
      0.2700058226D+00  0.1000000000D+01  0.1000000000D+01
 D   1 1.00       0.000000000000
      0.8000000000D+00  0.1000000000D+01
 ****
      4 0
 S   6 1.00       0.000000000000
      0.5484671660D+04  0.1831074430D-02
      0.8252349460D+03  0.1395017220D-01
      0.1880469580D+03  0.6844507810D-01
      0.5296450000D+02  0.2327143360D+00
      0.1689757040D+02  0.4701928980D+00
      0.5799635340D+01  0.3585208530D+00
 SP   3 1.00       0.000000000000
      0.1553961625D+02 -0.1107775495D+00  0.7087426823D-01
      0.3599933586D+01 -0.1480262627D+00  0.3397528391D+00
      0.1013761750D+01  0.1130767015D+01  0.7271585773D+00
 SP   1 1.00       0.000000000000
      0.2700058226D+00  0.1000000000D+01  0.1000000000D+01
 D   1 1.00       0.000000000000
      0.8000000000D+00  0.1000000000D+01
 ****
      5 0
 S   6 1.00       0.000000000000
      0.4173511460D+04  0.1834772160D-02
      0.6274579110D+03  0.1399462700D-01
      0.1429020930D+03  0.6858655181D-01
      0.4023432930D+02  0.2322408730D+00
      0.1282021290D+02  0.4690699481D+00
      0.4390437010D+01  0.3604551991D+00
 SP   3 1.00       0.000000000000
      0.1162636186D+02 -0.1149611817D+00  0.6757974388D-01
      0.2716279807D+01 -0.1691174786D+00  0.3239072959D+00
      0.7722183966D+00  0.1145851947D+01  0.7408951398D+00
 SP   1 1.00       0.000000000000
      0.2120314975D+00  0.1000000000D+01  0.1000000000D+01
 D   1 1.00       0.000000000000
      0.8000000000D+00  0.1000000000D+01
 ****
      6 0
 S   6 1.00       0.000000000000
      0.4173511460D+04  0.1834772160D-02
      0.6274579110D+03  0.1399462700D-01
      0.1429020930D+03  0.6858655181D-01
      0.4023432930D+02  0.2322408730D+00
      0.1282021290D+02  0.4690699481D+00
      0.4390437010D+01  0.3604551991D+00
 SP   3 1.00       0.000000000000
      0.1162636186D+02 -0.1149611817D+00  0.6757974388D-01
      0.2716279807D+01 -0.1691174786D+00  0.3239072959D+00
      0.7722183966D+00  0.1145851947D+01  0.7408951398D+00
 SP   1 1.00       0.000000000000
      0.2120314975D+00  0.1000000000D+01  0.1000000000D+01
 D   1 1.00       0.000000000000
      0.8000000000D+00  0.1000000000D+01
 ****
      7 0
 S   6 1.00       0.000000000000
      0.3047524880D+04  0.1834737132D-02
      0.4573695180D+03  0.1403732281D-01
      0.1039486850D+03  0.6884262226D-01
      0.2921015530D+02  0.2321844432D+00
      0.9286662960D+01  0.4679413484D+00
      0.3163926960D+01  0.3623119853D+00
 SP   3 1.00       0.000000000000
      0.7868272350D+01 -0.1193324198D+00  0.6899906659D-01
      0.1881288540D+01 -0.1608541517D+00  0.3164239610D+00
      0.5442492580D+00  0.1143456438D+01  0.7443082909D+00
 SP   1 1.00       0.000000000000
      0.1687144782D+00  0.1000000000D+01  0.1000000000D+01
 D   1 1.00       0.000000000000
      0.8000000000D+00  0.1000000000D+01
 ****
      8 0
 S   6 1.00       0.000000000000
      0.3047524880D+04  0.1834737132D-02
      0.4573695180D+03  0.1403732281D-01
      0.1039486850D+03  0.6884262226D-01
      0.2921015530D+02  0.2321844432D+00
      0.9286662960D+01  0.4679413484D+00
      0.3163926960D+01  0.3623119853D+00
 SP   3 1.00       0.000000000000
      0.7868272350D+01 -0.1193324198D+00  0.6899906659D-01
      0.1881288540D+01 -0.1608541517D+00  0.3164239610D+00
      0.5442492580D+00  0.1143456438D+01  0.7443082909D+00
 SP   1 1.00       0.000000000000
      0.1687144782D+00  0.1000000000D+01  0.1000000000D+01
 D   1 1.00       0.000000000000
      0.8000000000D+00  0.1000000000D+01
 ****
      9 0
 S   6 1.00       0.000000000000
      0.3047524880D+04  0.1834737132D-02
      0.4573695180D+03  0.1403732281D-01
      0.1039486850D+03  0.6884262226D-01
      0.2921015530D+02  0.2321844432D+00
      0.9286662960D+01  0.4679413484D+00
      0.3163926960D+01  0.3623119853D+00
 SP   3 1.00       0.000000000000
      0.7868272350D+01 -0.1193324198D+00  0.6899906659D-01
      0.1881288540D+01 -0.1608541517D+00  0.3164239610D+00
      0.5442492580D+00  0.1143456438D+01  0.7443082909D+00
 SP   1 1.00       0.000000000000
      0.1687144782D+00  0.1000000000D+01  0.1000000000D+01
 D   1 1.00       0.000000000000
      0.8000000000D+00  0.1000000000D+01
 ****
     10 0
 S   6 1.00       0.000000000000
      0.3047524880D+04  0.1834737132D-02
      0.4573695180D+03  0.1403732281D-01
      0.1039486850D+03  0.6884262226D-01
      0.2921015530D+02  0.2321844432D+00
      0.9286662960D+01  0.4679413484D+00
      0.3163926960D+01  0.3623119853D+00
 SP   3 1.00       0.000000000000
      0.7868272350D+01 -0.1193324198D+00  0.6899906659D-01
      0.1881288540D+01 -0.1608541517D+00  0.3164239610D+00
      0.5442492580D+00  0.1143456438D+01  0.7443082909D+00
 SP   1 1.00       0.000000000000
      0.1687144782D+00  0.1000000000D+01  0.1000000000D+01
 D   1 1.00       0.000000000000
      0.8000000000D+00  0.1000000000D+01
 ****
     11 0
 S   6 1.00       0.000000000000
      0.3047524880D+04  0.1834737132D-02
      0.4573695180D+03  0.1403732281D-01
      0.1039486850D+03  0.6884262226D-01
      0.2921015530D+02  0.2321844432D+00
      0.9286662960D+01  0.4679413484D+00
      0.3163926960D+01  0.3623119853D+00
 SP   3 1.00       0.000000000000
      0.7868272350D+01 -0.1193324198D+00  0.6899906659D-01
      0.1881288540D+01 -0.1608541517D+00  0.3164239610D+00
      0.5442492580D+00  0.1143456438D+01  0.7443082909D+00
 SP   1 1.00       0.000000000000
      0.1687144782D+00  0.1000000000D+01  0.1000000000D+01
 D   1 1.00       0.000000000000
      0.8000000000D+00  0.1000000000D+01
 ****
     12 0
 S   6 1.00       0.000000000000
      0.3047524880D+04  0.1834737132D-02
      0.4573695180D+03  0.1403732281D-01
      0.1039486850D+03  0.6884262226D-01
      0.2921015530D+02  0.2321844432D+00
      0.9286662960D+01  0.4679413484D+00
      0.3163926960D+01  0.3623119853D+00
 SP   3 1.00       0.000000000000
      0.7868272350D+01 -0.1193324198D+00  0.6899906659D-01
      0.1881288540D+01 -0.1608541517D+00  0.3164239610D+00
      0.5442492580D+00  0.1143456438D+01  0.7443082909D+00
 SP   1 1.00       0.000000000000
      0.1687144782D+00  0.1000000000D+01  0.1000000000D+01
 D   1 1.00       0.000000000000
      0.8000000000D+00  0.1000000000D+01
 ****
     13 0
 S   6 1.00       0.000000000000
      0.3047524880D+04  0.1834737132D-02
      0.4573695180D+03  0.1403732281D-01
      0.1039486850D+03  0.6884262226D-01
      0.2921015530D+02  0.2321844432D+00
      0.9286662960D+01  0.4679413484D+00
      0.3163926960D+01  0.3623119853D+00
 SP   3 1.00       0.000000000000
      0.7868272350D+01 -0.1193324198D+00  0.6899906659D-01
      0.1881288540D+01 -0.1608541517D+00  0.3164239610D+00
      0.5442492580D+00  0.1143456438D+01  0.7443082909D+00
 SP   1 1.00       0.000000000000
      0.1687144782D+00  0.1000000000D+01  0.1000000000D+01
 D   1 1.00       0.000000000000
      0.8000000000D+00  0.1000000000D+01
 ****
     14 0
 S   6 1.00       0.000000000000
      0.3047524880D+04  0.1834737132D-02
      0.4573695180D+03  0.1403732281D-01
      0.1039486850D+03  0.6884262226D-01
      0.2921015530D+02  0.2321844432D+00
      0.9286662960D+01  0.4679413484D+00
      0.3163926960D+01  0.3623119853D+00
 SP   3 1.00       0.000000000000
      0.7868272350D+01 -0.1193324198D+00  0.6899906659D-01
      0.1881288540D+01 -0.1608541517D+00  0.3164239610D+00
      0.5442492580D+00  0.1143456438D+01  0.7443082909D+00
 SP   1 1.00       0.000000000000
      0.1687144782D+00  0.1000000000D+01  0.1000000000D+01
 D   1 1.00       0.000000000000
      0.8000000000D+00  0.1000000000D+01
 ****
     15 0
 S   3 1.00       0.000000000000
      0.1873113696D+02  0.3349460434D-01
      0.2825394365D+01  0.2347269535D+00
      0.6401216923D+00  0.8137573261D+00
 S   1 1.00       0.000000000000
      0.1612777588D+00  0.1000000000D+01
 ****
     16 0
 S   3 1.00       0.000000000000
      0.1873113696D+02  0.3349460434D-01
      0.2825394365D+01  0.2347269535D+00
      0.6401216923D+00  0.8137573261D+00
 S   1 1.00       0.000000000000
      0.1612777588D+00  0.1000000000D+01
 ****
     17 0
 S   3 1.00       0.000000000000
      0.1873113696D+02  0.3349460434D-01
      0.2825394365D+01  0.2347269535D+00
      0.6401216923D+00  0.8137573261D+00
 S   1 1.00       0.000000000000
      0.1612777588D+00  0.1000000000D+01
 ****
     18 0
 S   3 1.00       0.000000000000
      0.1873113696D+02  0.3349460434D-01
      0.2825394365D+01  0.2347269535D+00
      0.6401216923D+00  0.8137573261D+00
 S   1 1.00       0.000000000000
      0.1612777588D+00  0.1000000000D+01
 ****
     19 0
 S   3 1.00       0.000000000000
      0.1873113696D+02  0.3349460434D-01
      0.2825394365D+01  0.2347269535D+00
      0.6401216923D+00  0.8137573261D+00
 S   1 1.00       0.000000000000
      0.1612777588D+00  0.1000000000D+01
 ****
     20 0
 S   3 1.00       0.000000000000
      0.1873113696D+02  0.3349460434D-01
      0.2825394365D+01  0.2347269535D+00
      0.6401216923D+00  0.8137573261D+00
 S   1 1.00       0.000000000000
      0.1612777588D+00  0.1000000000D+01
 ****
     21 0
 S   3 1.00       0.000000000000
      0.1873113696D+02  0.3349460434D-01
      0.2825394365D+01  0.2347269535D+00
      0.6401216923D+00  0.8137573261D+00
 S   1 1.00       0.000000000000
      0.1612777588D+00  0.1000000000D+01
 ****
     22 0
 S   6 1.00       0.000000000000
      0.3047524880D+04  0.1834737132D-02
      0.4573695180D+03  0.1403732281D-01
      0.1039486850D+03  0.6884262226D-01
      0.2921015530D+02  0.2321844432D+00
      0.9286662960D+01  0.4679413484D+00
      0.3163926960D+01  0.3623119853D+00
 SP   3 1.00       0.000000000000
      0.7868272350D+01 -0.1193324198D+00  0.6899906659D-01
      0.1881288540D+01 -0.1608541517D+00  0.3164239610D+00
      0.5442492580D+00  0.1143456438D+01  0.7443082909D+00
 SP   1 1.00       0.000000000000
      0.1687144782D+00  0.1000000000D+01  0.1000000000D+01
 D   1 1.00       0.000000000000
      0.8000000000D+00  0.1000000000D+01
 ****
     23 0
 S   6 1.00       0.000000000000
      0.3047524880D+04  0.1834737132D-02
      0.4573695180D+03  0.1403732281D-01
      0.1039486850D+03  0.6884262226D-01
      0.2921015530D+02  0.2321844432D+00
      0.9286662960D+01  0.4679413484D+00
      0.3163926960D+01  0.3623119853D+00
 SP   3 1.00       0.000000000000
      0.7868272350D+01 -0.1193324198D+00  0.6899906659D-01
      0.1881288540D+01 -0.1608541517D+00  0.3164239610D+00
      0.5442492580D+00  0.1143456438D+01  0.7443082909D+00
 SP   1 1.00       0.000000000000
      0.1687144782D+00  0.1000000000D+01  0.1000000000D+01
 D   1 1.00       0.000000000000
      0.8000000000D+00  0.1000000000D+01
 ****
     24 0
 S   6 1.00       0.000000000000
      0.3047524880D+04  0.1834737132D-02
      0.4573695180D+03  0.1403732281D-01
      0.1039486850D+03  0.6884262226D-01
      0.2921015530D+02  0.2321844432D+00
      0.9286662960D+01  0.4679413484D+00
      0.3163926960D+01  0.3623119853D+00
 SP   3 1.00       0.000000000000
      0.7868272350D+01 -0.1193324198D+00  0.6899906659D-01
      0.1881288540D+01 -0.1608541517D+00  0.3164239610D+00
      0.5442492580D+00  0.1143456438D+01  0.7443082909D+00
 SP   1 1.00       0.000000000000
      0.1687144782D+00  0.1000000000D+01  0.1000000000D+01
 D   1 1.00       0.000000000000
      0.8000000000D+00  0.1000000000D+01
 ****
     25 0
 S   6 1.00       0.000000000000
      0.3047524880D+04  0.1834737132D-02
      0.4573695180D+03  0.1403732281D-01
      0.1039486850D+03  0.6884262226D-01
      0.2921015530D+02  0.2321844432D+00
      0.9286662960D+01  0.4679413484D+00
      0.3163926960D+01  0.3623119853D+00
 SP   3 1.00       0.000000000000
      0.7868272350D+01 -0.1193324198D+00  0.6899906659D-01
      0.1881288540D+01 -0.1608541517D+00  0.3164239610D+00
      0.5442492580D+00  0.1143456438D+01  0.7443082909D+00
 SP   1 1.00       0.000000000000
      0.1687144782D+00  0.1000000000D+01  0.1000000000D+01
 D   1 1.00       0.000000000000
      0.8000000000D+00  0.1000000000D+01
 ****
     26 0
 S   3 1.00       0.000000000000
      0.1873113696D+02  0.3349460434D-01
      0.2825394365D+01  0.2347269535D+00
      0.6401216923D+00  0.8137573261D+00
 S   1 1.00       0.000000000000
      0.1612777588D+00  0.1000000000D+01
 ****
     27 0
 S   6 1.00       0.000000000000
      0.3047524880D+04  0.1834737132D-02
      0.4573695180D+03  0.1403732281D-01
      0.1039486850D+03  0.6884262226D-01
      0.2921015530D+02  0.2321844432D+00
      0.9286662960D+01  0.4679413484D+00
      0.3163926960D+01  0.3623119853D+00
 SP   3 1.00       0.000000000000
      0.7868272350D+01 -0.1193324198D+00  0.6899906659D-01
      0.1881288540D+01 -0.1608541517D+00  0.3164239610D+00
      0.5442492580D+00  0.1143456438D+01  0.7443082909D+00
 SP   1 1.00       0.000000000000
      0.1687144782D+00  0.1000000000D+01  0.1000000000D+01
 D   1 1.00       0.000000000000
      0.8000000000D+00  0.1000000000D+01
 ****
     28 0
 S   3 1.00       0.000000000000
      0.1873113696D+02  0.3349460434D-01
      0.2825394365D+01  0.2347269535D+00
      0.6401216923D+00  0.8137573261D+00
 S   1 1.00       0.000000000000
      0.1612777588D+00  0.1000000000D+01
 ****
     29 0
 S   6 1.00       0.000000000000
      0.3047524880D+04  0.1834737132D-02
      0.4573695180D+03  0.1403732281D-01
      0.1039486850D+03  0.6884262226D-01
      0.2921015530D+02  0.2321844432D+00
      0.9286662960D+01  0.4679413484D+00
      0.3163926960D+01  0.3623119853D+00
 SP   3 1.00       0.000000000000
      0.7868272350D+01 -0.1193324198D+00  0.6899906659D-01
      0.1881288540D+01 -0.1608541517D+00  0.3164239610D+00
      0.5442492580D+00  0.1143456438D+01  0.7443082909D+00
 SP   1 1.00       0.000000000000
      0.1687144782D+00  0.1000000000D+01  0.1000000000D+01
 D   1 1.00       0.000000000000
      0.8000000000D+00  0.1000000000D+01
 ****
     30 0
 S   3 1.00       0.000000000000
      0.1873113696D+02  0.3349460434D-01
      0.2825394365D+01  0.2347269535D+00
      0.6401216923D+00  0.8137573261D+00
 S   1 1.00       0.000000000000
      0.1612777588D+00  0.1000000000D+01
 ****
     31 0
 S   3 1.00       0.000000000000
      0.1873113696D+02  0.3349460434D-01
      0.2825394365D+01  0.2347269535D+00
      0.6401216923D+00  0.8137573261D+00
 S   1 1.00       0.000000000000
      0.1612777588D+00  0.1000000000D+01
 ****
     32 0
 S   3 1.00       0.000000000000
      0.1873113696D+02  0.3349460434D-01
      0.2825394365D+01  0.2347269535D+00
      0.6401216923D+00  0.8137573261D+00
 S   1 1.00       0.000000000000
      0.1612777588D+00  0.1000000000D+01
 ****
     33 0
 S   3 1.00       0.000000000000
      0.1873113696D+02  0.3349460434D-01
      0.2825394365D+01  0.2347269535D+00
      0.6401216923D+00  0.8137573261D+00
 S   1 1.00       0.000000000000
      0.1612777588D+00  0.1000000000D+01
 ****
     34 0
 S   3 1.00       0.000000000000
      0.1873113696D+02  0.3349460434D-01
      0.2825394365D+01  0.2347269535D+00
      0.6401216923D+00  0.8137573261D+00
 S   1 1.00       0.000000000000
      0.1612777588D+00  0.1000000000D+01
 ****
     35 0
 S   3 1.00       0.000000000000
      0.2090800100D+02  0.3980531823D+00
      0.1390623400D+02 -0.6490522972D+00
      0.7328543000D+01 -0.7234533313D+00
 S   1 1.00       0.000000000000
      0.2136324000D+01  0.1000000000D+01
 S   1 1.00       0.000000000000
      0.8528220000D+00  0.1000000000D+01
 S   1 1.00       0.000000000000
      0.1066920000D+00  0.1000000000D+01
 S   1 1.00       0.000000000000
      0.3934600000D-01  0.1000000000D+01
 S   1 1.00       0.000000000000
      0.1000000000D-01  0.1000000000D+01
 P   2 1.00       0.000000000000
      0.6703444300D+02  0.2936999842D-01
      0.1326233400D+02 -0.1013625945D+01
 P   2 1.00       0.000000000000
      0.5690650000D+01  0.2038648887D+00
      0.2271940000D+01  0.8336445450D+00
 P   1 1.00       0.000000000000
      0.7889110000D+00  0.1000000000D+01
 P   1 1.00       0.000000000000
      0.1183550000D+00  0.1000000000D+01
 P   1 1.00       0.000000000000
      0.3059400000D-01  0.1000000000D+01
 D   4 1.00       0.000000000000
      0.3684052000D+02  0.3805602385D-01
      0.1117367500D+02  0.1889251184D+00
      0.3797564000D+01  0.4410512764D+00
      0.1239262000D+01  0.5656973546D+00
 D   1 1.00       0.000000000000
      0.3394000000D+00  0.1000000000D+01
 D   1 1.00       0.000000000000
      0.9000000000D-01  0.1000000000D+01
 F   1 1.00       0.000000000000
      0.2200000000D+01  0.1000000000D+01
 ****

 AO basis set (Overlap normalization):
 Atom S1       Shell     1 S   6     bf    1 -     1         -4.269631331037          0.703671753981         -2.052872255555
      0.2191710000D+05  0.1869240849D-02
      0.3301490000D+04  0.1423030646D-01
      0.7541460000D+03  0.6969623166D-01
      0.2127110000D+03  0.2384871083D+00
      0.6798960000D+02  0.4833072195D+00
      0.2305150000D+02  0.3380741536D+00
 Atom S1       Shell     2 SP   6    bf    2 -     5         -4.269631331037          0.703671753981         -2.052872255555
      0.4237350000D+03 -0.2376770499D-02  0.4061009982D-02
      0.1007100000D+03 -0.3169300665D-01  0.3068129986D-01
      0.3215990000D+02 -0.1133170238D+00  0.1304519994D+00
      0.1180790000D+02  0.5609001177D-01  0.3272049985D+00
      0.4631100000D+01  0.5922551243D+00  0.4528509980D+00
      0.1870250000D+01  0.4550060955D+00  0.2560419989D+00
 Atom S1       Shell     3 SP   3    bf    6 -     9         -4.269631331037          0.703671753981         -2.052872255555
      0.2615840000D+01 -0.2503731142D+00 -0.1451048955D-01
      0.9221670000D+00  0.6695676310D-01  0.3102627765D+00
      0.3412870000D+00  0.1054506269D+01  0.7544824565D+00
 Atom S1       Shell     4 SP   1    bf   10 -    13         -4.269631331037          0.703671753981         -2.052872255555
      0.1171670000D+00  0.1000000000D+01  0.1000000000D+01
 Atom S1       Shell     5 D   1     bf   14 -    18         -4.269631331037          0.703671753981         -2.052872255555
      0.6500000000D+00  0.1000000000D+01
 Atom O2       Shell     6 S   6     bf   19 -    19         -4.024935426896         -2.219433611004         -2.729839534408
      0.5484671660D+04  0.1831074430D-02
      0.8252349460D+03  0.1395017220D-01
      0.1880469580D+03  0.6844507810D-01
      0.5296450000D+02  0.2327143360D+00
      0.1689757040D+02  0.4701928980D+00
      0.5799635340D+01  0.3585208530D+00
 Atom O2       Shell     7 SP   3    bf   20 -    23         -4.024935426896         -2.219433611004         -2.729839534408
      0.1553961625D+02 -0.1107775495D+00  0.7087426823D-01
      0.3599933586D+01 -0.1480262627D+00  0.3397528391D+00
      0.1013761750D+01  0.1130767015D+01  0.7271585773D+00
 Atom O2       Shell     8 SP   1    bf   24 -    27         -4.024935426896         -2.219433611004         -2.729839534408
      0.2700058226D+00  0.1000000000D+01  0.1000000000D+01
 Atom O2       Shell     9 D   1     bf   28 -    32         -4.024935426896         -2.219433611004         -2.729839534408
      0.8000000000D+00  0.1000000000D+01
 Atom O3       Shell    10 S   6     bf   33 -    33         -1.992826124672          0.987997108627         -0.157473724390
      0.5484671660D+04  0.1831074430D-02
      0.8252349460D+03  0.1395017220D-01
      0.1880469580D+03  0.6844507810D-01
      0.5296450000D+02  0.2327143360D+00
      0.1689757040D+02  0.4701928980D+00
      0.5799635340D+01  0.3585208530D+00
 Atom O3       Shell    11 SP   3    bf   34 -    37         -1.992826124672          0.987997108627         -0.157473724390
      0.1553961625D+02 -0.1107775495D+00  0.7087426823D-01
      0.3599933586D+01 -0.1480262627D+00  0.3397528391D+00
      0.1013761750D+01  0.1130767015D+01  0.7271585773D+00
 Atom O3       Shell    12 SP   1    bf   38 -    41         -1.992826124672          0.987997108627         -0.157473724390
      0.2700058226D+00  0.1000000000D+01  0.1000000000D+01
 Atom O3       Shell    13 D   1     bf   42 -    46         -1.992826124672          0.987997108627         -0.157473724390
      0.8000000000D+00  0.1000000000D+01
 Atom O4       Shell    14 S   6     bf   47 -    47          4.583207701348          4.513195607954         -1.098374603745
      0.5484671660D+04  0.1831074430D-02
      0.8252349460D+03  0.1395017220D-01
      0.1880469580D+03  0.6844507810D-01
      0.5296450000D+02  0.2327143360D+00
      0.1689757040D+02  0.4701928980D+00
      0.5799635340D+01  0.3585208530D+00
 Atom O4       Shell    15 SP   3    bf   48 -    51          4.583207701348          4.513195607954         -1.098374603745
      0.1553961625D+02 -0.1107775495D+00  0.7087426823D-01
      0.3599933586D+01 -0.1480262627D+00  0.3397528391D+00
      0.1013761750D+01  0.1130767015D+01  0.7271585773D+00
 Atom O4       Shell    16 SP   1    bf   52 -    55          4.583207701348          4.513195607954         -1.098374603745
      0.2700058226D+00  0.1000000000D+01  0.1000000000D+01
 Atom O4       Shell    17 D   1     bf   56 -    60          4.583207701348          4.513195607954         -1.098374603745
      0.8000000000D+00  0.1000000000D+01
 Atom N5       Shell    18 S   6     bf   61 -    61          2.232382142414         -4.144742896302          0.242570160911
      0.4173511460D+04  0.1834772160D-02
      0.6274579110D+03  0.1399462700D-01
      0.1429020930D+03  0.6858655181D-01
      0.4023432930D+02  0.2322408730D+00
      0.1282021290D+02  0.4690699481D+00
      0.4390437010D+01  0.3604551991D+00
 Atom N5       Shell    19 SP   3    bf   62 -    65          2.232382142414         -4.144742896302          0.242570160911
      0.1162636186D+02 -0.1149611817D+00  0.6757974388D-01
      0.2716279807D+01 -0.1691174786D+00  0.3239072959D+00
      0.7722183966D+00  0.1145851947D+01  0.7408951398D+00
 Atom N5       Shell    20 SP   1    bf   66 -    69          2.232382142414         -4.144742896302          0.242570160911
      0.2120314975D+00  0.1000000000D+01  0.1000000000D+01
 Atom N5       Shell    21 D   1     bf   70 -    74          2.232382142414         -4.144742896302          0.242570160911
      0.8000000000D+00  0.1000000000D+01
 Atom N6       Shell    22 S   6     bf   75 -    75          8.301018007794          2.768243048325          0.268690939867
      0.4173511460D+04  0.1834772160D-02
      0.6274579110D+03  0.1399462700D-01
      0.1429020930D+03  0.6858655181D-01
      0.4023432930D+02  0.2322408730D+00
      0.1282021290D+02  0.4690699481D+00
      0.4390437010D+01  0.3604551991D+00
 Atom N6       Shell    23 SP   3    bf   76 -    79          8.301018007794          2.768243048325          0.268690939867
      0.1162636186D+02 -0.1149611817D+00  0.6757974388D-01
      0.2716279807D+01 -0.1691174786D+00  0.3239072959D+00
      0.7722183966D+00  0.1145851947D+01  0.7408951398D+00
 Atom N6       Shell    24 SP   1    bf   80 -    83          8.301018007794          2.768243048325          0.268690939867
      0.2120314975D+00  0.1000000000D+01  0.1000000000D+01
 Atom N6       Shell    25 D   1     bf   84 -    88          8.301018007794          2.768243048325          0.268690939867
      0.8000000000D+00  0.1000000000D+01
 Atom C7       Shell    26 S   6     bf   89 -    89          4.600225965297         -3.250703121488          0.639808912857
      0.3047524880D+04  0.1834737132D-02
      0.4573695180D+03  0.1403732281D-01
      0.1039486850D+03  0.6884262226D-01
      0.2921015530D+02  0.2321844432D+00
      0.9286662960D+01  0.4679413484D+00
      0.3163926960D+01  0.3623119853D+00
 Atom C7       Shell    27 SP   3    bf   90 -    93          4.600225965297         -3.250703121488          0.639808912857
      0.7868272350D+01 -0.1193324198D+00  0.6899906659D-01
      0.1881288540D+01 -0.1608541517D+00  0.3164239610D+00
      0.5442492580D+00  0.1143456438D+01  0.7443082909D+00
 Atom C7       Shell    28 SP   1    bf   94 -    97          4.600225965297         -3.250703121488          0.639808912857
      0.1687144782D+00  0.1000000000D+01  0.1000000000D+01
 Atom C7       Shell    29 D   1     bf   98 -   102          4.600225965297         -3.250703121488          0.639808912857
      0.8000000000D+00  0.1000000000D+01
 Atom C8       Shell    30 S   6     bf  103 -   103          6.570672873748         -4.900873159020          1.482192514434
      0.3047524880D+04  0.1834737132D-02
      0.4573695180D+03  0.1403732281D-01
      0.1039486850D+03  0.6884262226D-01
      0.2921015530D+02  0.2321844432D+00
      0.9286662960D+01  0.4679413484D+00
      0.3163926960D+01  0.3623119853D+00
 Atom C8       Shell    31 SP   3    bf  104 -   107          6.570672873748         -4.900873159020          1.482192514434
      0.7868272350D+01 -0.1193324198D+00  0.6899906659D-01
      0.1881288540D+01 -0.1608541517D+00  0.3164239610D+00
      0.5442492580D+00  0.1143456438D+01  0.7443082909D+00
 Atom C8       Shell    32 SP   1    bf  108 -   111          6.570672873748         -4.900873159020          1.482192514434
      0.1687144782D+00  0.1000000000D+01  0.1000000000D+01
 Atom C8       Shell    33 D   1     bf  112 -   116          6.570672873748         -4.900873159020          1.482192514434
      0.8000000000D+00  0.1000000000D+01
 Atom C9       Shell    34 S   6     bf  117 -   117          9.541558215405         -1.421441119631          1.455778166580
      0.3047524880D+04  0.1834737132D-02
      0.4573695180D+03  0.1403732281D-01
      0.1039486850D+03  0.6884262226D-01
      0.2921015530D+02  0.2321844432D+00
      0.9286662960D+01  0.4679413484D+00
      0.3163926960D+01  0.3623119853D+00
 Atom C9       Shell    35 SP   3    bf  118 -   121          9.541558215405         -1.421441119631          1.455778166580
      0.7868272350D+01 -0.1193324198D+00  0.6899906659D-01
      0.1881288540D+01 -0.1608541517D+00  0.3164239610D+00
      0.5442492580D+00  0.1143456438D+01  0.7443082909D+00
 Atom C9       Shell    36 SP   1    bf  122 -   125          9.541558215405         -1.421441119631          1.455778166580
      0.1687144782D+00  0.1000000000D+01  0.1000000000D+01
 Atom C9       Shell    37 D   1     bf  126 -   130          9.541558215405         -1.421441119631          1.455778166580
      0.8000000000D+00  0.1000000000D+01
 Atom C10      Shell    38 S   6     bf  131 -   131          7.612882951936          0.258570905358          0.627502227653
      0.3047524880D+04  0.1834737132D-02
      0.4573695180D+03  0.1403732281D-01
      0.1039486850D+03  0.6884262226D-01
      0.2921015530D+02  0.2321844432D+00
      0.9286662960D+01  0.4679413484D+00
      0.3163926960D+01  0.3623119853D+00
 Atom C10      Shell    39 SP   3    bf  132 -   135          7.612882951936          0.258570905358          0.627502227653
      0.7868272350D+01 -0.1193324198D+00  0.6899906659D-01
      0.1881288540D+01 -0.1608541517D+00  0.3164239610D+00
      0.5442492580D+00  0.1143456438D+01  0.7443082909D+00
 Atom C10      Shell    40 SP   1    bf  136 -   139          7.612882951936          0.258570905358          0.627502227653
      0.1687144782D+00  0.1000000000D+01  0.1000000000D+01
 Atom C10      Shell    41 D   1     bf  140 -   144          7.612882951936          0.258570905358          0.627502227653
      0.8000000000D+00  0.1000000000D+01
 Atom C11      Shell    42 S   6     bf  145 -   145          5.153342361194         -0.650767897863          0.223882715756
      0.3047524880D+04  0.1834737132D-02
      0.4573695180D+03  0.1403732281D-01
      0.1039486850D+03  0.6884262226D-01
      0.2921015530D+02  0.2321844432D+00
      0.9286662960D+01  0.4679413484D+00
      0.3163926960D+01  0.3623119853D+00
 Atom C11      Shell    43 SP   3    bf  146 -   149          5.153342361194         -0.650767897863          0.223882715756
      0.7868272350D+01 -0.1193324198D+00  0.6899906659D-01
      0.1881288540D+01 -0.1608541517D+00  0.3164239610D+00
      0.5442492580D+00  0.1143456438D+01  0.7443082909D+00
 Atom C11      Shell    44 SP   1    bf  150 -   153          5.153342361194         -0.650767897863          0.223882715756
      0.1687144782D+00  0.1000000000D+01  0.1000000000D+01
 Atom C11      Shell    45 D   1     bf  154 -   158          5.153342361194         -0.650767897863          0.223882715756
      0.8000000000D+00  0.1000000000D+01
 Atom C12      Shell    46 S   6     bf  159 -   159          8.997684299360         -3.970139583550          1.872046206751
      0.3047524880D+04  0.1834737132D-02
      0.4573695180D+03  0.1403732281D-01
      0.1039486850D+03  0.6884262226D-01
      0.2921015530D+02  0.2321844432D+00
      0.9286662960D+01  0.4679413484D+00
      0.3163926960D+01  0.3623119853D+00
 Atom C12      Shell    47 SP   3    bf  160 -   163          8.997684299360         -3.970139583550          1.872046206751
      0.7868272350D+01 -0.1193324198D+00  0.6899906659D-01
      0.1881288540D+01 -0.1608541517D+00  0.3164239610D+00
      0.5442492580D+00  0.1143456438D+01  0.7443082909D+00
 Atom C12      Shell    48 SP   1    bf  164 -   167          8.997684299360         -3.970139583550          1.872046206751
      0.1687144782D+00  0.1000000000D+01  0.1000000000D+01
 Atom C12      Shell    49 D   1     bf  168 -   172          8.997684299360         -3.970139583550          1.872046206751
      0.8000000000D+00  0.1000000000D+01
 Atom C13      Shell    50 S   6     bf  173 -   173          6.826583363253          4.797938761027         -0.556998331641
      0.3047524880D+04  0.1834737132D-02
      0.4573695180D+03  0.1403732281D-01
      0.1039486850D+03  0.6884262226D-01
      0.2921015530D+02  0.2321844432D+00
      0.9286662960D+01  0.4679413484D+00
      0.3163926960D+01  0.3623119853D+00
 Atom C13      Shell    51 SP   3    bf  174 -   177          6.826583363253          4.797938761027         -0.556998331641
      0.7868272350D+01 -0.1193324198D+00  0.6899906659D-01
      0.1881288540D+01 -0.1608541517D+00  0.3164239610D+00
      0.5442492580D+00  0.1143456438D+01  0.7443082909D+00
 Atom C13      Shell    52 SP   1    bf  178 -   181          6.826583363253          4.797938761027         -0.556998331641
      0.1687144782D+00  0.1000000000D+01  0.1000000000D+01
 Atom C13      Shell    53 D   1     bf  182 -   186          6.826583363253          4.797938761027         -0.556998331641
      0.8000000000D+00  0.1000000000D+01
 Atom C14      Shell    54 S   6     bf  187 -   187          8.131394764613          7.314240025812         -0.672081284759
      0.3047524880D+04  0.1834737132D-02
      0.4573695180D+03  0.1403732281D-01
      0.1039486850D+03  0.6884262226D-01
      0.2921015530D+02  0.2321844432D+00
      0.9286662960D+01  0.4679413484D+00
      0.3163926960D+01  0.3623119853D+00
 Atom C14      Shell    55 SP   3    bf  188 -   191          8.131394764613          7.314240025812         -0.672081284759
      0.7868272350D+01 -0.1193324198D+00  0.6899906659D-01
      0.1881288540D+01 -0.1608541517D+00  0.3164239610D+00
      0.5442492580D+00  0.1143456438D+01  0.7443082909D+00
 Atom C14      Shell    56 SP   1    bf  192 -   195          8.131394764613          7.314240025812         -0.672081284759
      0.1687144782D+00  0.1000000000D+01  0.1000000000D+01
 Atom C14      Shell    57 D   1     bf  196 -   200          8.131394764613          7.314240025812         -0.672081284759
      0.8000000000D+00  0.1000000000D+01
 Atom H15      Shell    58 S   3     bf  201 -   201          3.663590686206          0.627229842104         -0.393580905889
      0.1873113696D+02  0.3349460434D-01
      0.2825394365D+01  0.2347269535D+00
      0.6401216923D+00  0.8137573261D+00
 Atom H15      Shell    59 S   1     bf  202 -   202          3.663590686206          0.627229842104         -0.393580905889
      0.1612777588D+00  0.1000000000D+01
 Atom H16      Shell    60 S   3     bf  203 -   203         10.495516813939         -5.238329894358          2.507243356260
      0.1873113696D+02  0.3349460434D-01
      0.2825394365D+01  0.2347269535D+00
      0.6401216923D+00  0.8137573261D+00
 Atom H16      Shell    61 S   1     bf  204 -   204         10.495516813939         -5.238329894358          2.507243356260
      0.1612777588D+00  0.1000000000D+01
 Atom H17      Shell    62 S   3     bf  205 -   205          2.112653317876         -6.045987419405          0.669941739550
      0.1873113696D+02  0.3349460434D-01
      0.2825394365D+01  0.2347269535D+00
      0.6401216923D+00  0.8137573261D+00
 Atom H17      Shell    63 S   1     bf  206 -   206          2.112653317876         -6.045987419405          0.669941739550
      0.1612777588D+00  0.1000000000D+01
 Atom H18      Shell    64 S   3     bf  207 -   207         10.150323672703          3.198267718959          0.660086206171
      0.1873113696D+02  0.3349460434D-01
      0.2825394365D+01  0.2347269535D+00
      0.6401216923D+00  0.8137573261D+00
 Atom H18      Shell    65 S   1     bf  208 -   208         10.150323672703          3.198267718959          0.660086206171
      0.1612777588D+00  0.1000000000D+01
 Atom H19      Shell    66 S   3     bf  209 -   209          7.932677112429          8.259826462003          1.176445828433
      0.1873113696D+02  0.3349460434D-01
      0.2825394365D+01  0.2347269535D+00
      0.6401216923D+00  0.8137573261D+00
 Atom H19      Shell    67 S   1     bf  210 -   210          7.932677112429          8.259826462003          1.176445828433
      0.1612777588D+00  0.1000000000D+01
 Atom H20      Shell    68 S   3     bf  211 -   211          7.195897261082          8.503478336145         -2.089741161635
      0.1873113696D+02  0.3349460434D-01
      0.2825394365D+01  0.2347269535D+00
      0.6401216923D+00  0.8137573261D+00
 Atom H20      Shell    69 S   1     bf  212 -   212          7.195897261082          8.503478336145         -2.089741161635
      0.1612777588D+00  0.1000000000D+01
 Atom H21      Shell    70 S   3     bf  213 -   213         10.153150976810          7.151145162714         -1.119956837443
      0.1873113696D+02  0.3349460434D-01
      0.2825394365D+01  0.2347269535D+00
      0.6401216923D+00  0.8137573261D+00
 Atom H21      Shell    71 S   1     bf  214 -   214         10.153150976810          7.151145162714         -1.119956837443
      0.1612777588D+00  0.1000000000D+01
 Atom C22      Shell    72 S   6     bf  215 -   215         -7.109109811344          0.862557393181         -0.113492311289
      0.3047524880D+04  0.1834737132D-02
      0.4573695180D+03  0.1403732281D-01
      0.1039486850D+03  0.6884262226D-01
      0.2921015530D+02  0.2321844432D+00
      0.9286662960D+01  0.4679413484D+00
      0.3163926960D+01  0.3623119853D+00
 Atom C22      Shell    73 SP   3    bf  216 -   219         -7.109109811344          0.862557393181         -0.113492311289
      0.7868272350D+01 -0.1193324198D+00  0.6899906659D-01
      0.1881288540D+01 -0.1608541517D+00  0.3164239610D+00
      0.5442492580D+00  0.1143456438D+01  0.7443082909D+00
 Atom C22      Shell    74 SP   1    bf  220 -   223         -7.109109811344          0.862557393181         -0.113492311289
      0.1687144782D+00  0.1000000000D+01  0.1000000000D+01
 Atom C22      Shell    75 D   1     bf  224 -   228         -7.109109811344          0.862557393181         -0.113492311289
      0.8000000000D+00  0.1000000000D+01
 Atom C23      Shell    76 S   6     bf  229 -   229         -9.205249144088         -0.606820550888         -0.793825219993
      0.3047524880D+04  0.1834737132D-02
      0.4573695180D+03  0.1403732281D-01
      0.1039486850D+03  0.6884262226D-01
      0.2921015530D+02  0.2321844432D+00
      0.9286662960D+01  0.4679413484D+00
      0.3163926960D+01  0.3623119853D+00
 Atom C23      Shell    77 SP   3    bf  230 -   233         -9.205249144088         -0.606820550888         -0.793825219993
      0.7868272350D+01 -0.1193324198D+00  0.6899906659D-01
      0.1881288540D+01 -0.1608541517D+00  0.3164239610D+00
      0.5442492580D+00  0.1143456438D+01  0.7443082909D+00
 Atom C23      Shell    78 SP   1    bf  234 -   237         -9.205249144088         -0.606820550888         -0.793825219993
      0.1687144782D+00  0.1000000000D+01  0.1000000000D+01
 Atom C23      Shell    79 D   1     bf  238 -   242         -9.205249144088         -0.606820550888         -0.793825219993
      0.8000000000D+00  0.1000000000D+01
 Atom C24      Shell    80 S   6     bf  243 -   243         -7.194903860039          2.644424300766          1.840856557909
      0.3047524880D+04  0.1834737132D-02
      0.4573695180D+03  0.1403732281D-01
      0.1039486850D+03  0.6884262226D-01
      0.2921015530D+02  0.2321844432D+00
      0.9286662960D+01  0.4679413484D+00
      0.3163926960D+01  0.3623119853D+00
 Atom C24      Shell    81 SP   3    bf  244 -   247         -7.194903860039          2.644424300766          1.840856557909
      0.7868272350D+01 -0.1193324198D+00  0.6899906659D-01
      0.1881288540D+01 -0.1608541517D+00  0.3164239610D+00
      0.5442492580D+00  0.1143456438D+01  0.7443082909D+00
 Atom C24      Shell    82 SP   1    bf  248 -   251         -7.194903860039          2.644424300766          1.840856557909
      0.1687144782D+00  0.1000000000D+01  0.1000000000D+01
 Atom C24      Shell    83 D   1     bf  252 -   256         -7.194903860039          2.644424300766          1.840856557909
      0.8000000000D+00  0.1000000000D+01
 Atom C25      Shell    84 S   6     bf  257 -   257        -11.448402005660         -0.308593909258          0.590253935806
      0.3047524880D+04  0.1834737132D-02
      0.4573695180D+03  0.1403732281D-01
      0.1039486850D+03  0.6884262226D-01
      0.2921015530D+02  0.2321844432D+00
      0.9286662960D+01  0.4679413484D+00
      0.3163926960D+01  0.3623119853D+00
 Atom C25      Shell    85 SP   3    bf  258 -   261        -11.448402005660         -0.308593909258          0.590253935806
      0.7868272350D+01 -0.1193324198D+00  0.6899906659D-01
      0.1881288540D+01 -0.1608541517D+00  0.3164239610D+00
      0.5442492580D+00  0.1143456438D+01  0.7443082909D+00
 Atom C25      Shell    86 SP   1    bf  262 -   265        -11.448402005660         -0.308593909258          0.590253935806
      0.1687144782D+00  0.1000000000D+01  0.1000000000D+01
 Atom C25      Shell    87 D   1     bf  266 -   270        -11.448402005660         -0.308593909258          0.590253935806
      0.8000000000D+00  0.1000000000D+01
 Atom H26      Shell    88 S   3     bf  271 -   271         -9.100786163628         -1.965917503076         -2.343342463099
      0.1873113696D+02  0.3349460434D-01
      0.2825394365D+01  0.2347269535D+00
      0.6401216923D+00  0.8137573261D+00
 Atom H26      Shell    89 S   1     bf  272 -   272         -9.100786163628         -1.965917503076         -2.343342463099
      0.1612777588D+00  0.1000000000D+01
 Atom C27      Shell    90 S   6     bf  273 -   273         -9.454949788778          2.915228517735          3.202657611625
      0.3047524880D+04  0.1834737132D-02
      0.4573695180D+03  0.1403732281D-01
      0.1039486850D+03  0.6884262226D-01
      0.2921015530D+02  0.2321844432D+00
      0.9286662960D+01  0.4679413484D+00
      0.3163926960D+01  0.3623119853D+00
 Atom C27      Shell    91 SP   3    bf  274 -   277         -9.454949788778          2.915228517735          3.202657611625
      0.7868272350D+01 -0.1193324198D+00  0.6899906659D-01
      0.1881288540D+01 -0.1608541517D+00  0.3164239610D+00
      0.5442492580D+00  0.1143456438D+01  0.7443082909D+00
 Atom C27      Shell    92 SP   1    bf  278 -   281         -9.454949788778          2.915228517735          3.202657611625
      0.1687144782D+00  0.1000000000D+01  0.1000000000D+01
 Atom C27      Shell    93 D   1     bf  282 -   286         -9.454949788778          2.915228517735          3.202657611625
      0.8000000000D+00  0.1000000000D+01
 Atom H28      Shell    94 S   3     bf  287 -   287         -5.539054048338          3.780360867715          2.316668815922
      0.1873113696D+02  0.3349460434D-01
      0.2825394365D+01  0.2347269535D+00
      0.6401216923D+00  0.8137573261D+00
 Atom H28      Shell    95 S   1     bf  288 -   288         -5.539054048338          3.780360867715          2.316668815922
      0.1612777588D+00  0.1000000000D+01
 Atom C29      Shell    96 S   6     bf  289 -   289        -11.574942307169          1.448461524468          2.574203625902
      0.3047524880D+04  0.1834737132D-02
      0.4573695180D+03  0.1403732281D-01
      0.1039486850D+03  0.6884262226D-01
      0.2921015530D+02  0.2321844432D+00
      0.9286662960D+01  0.4679413484D+00
      0.3163926960D+01  0.3623119853D+00
 Atom C29      Shell    97 SP   3    bf  290 -   293        -11.574942307169          1.448461524468          2.574203625902
      0.7868272350D+01 -0.1193324198D+00  0.6899906659D-01
      0.1881288540D+01 -0.1608541517D+00  0.3164239610D+00
      0.5442492580D+00  0.1143456438D+01  0.7443082909D+00
 Atom C29      Shell    98 SP   1    bf  294 -   297        -11.574942307169          1.448461524468          2.574203625902
      0.1687144782D+00  0.1000000000D+01  0.1000000000D+01
 Atom C29      Shell    99 D   1     bf  298 -   302        -11.574942307169          1.448461524468          2.574203625902
      0.8000000000D+00  0.1000000000D+01
 Atom H30      Shell   100 S   3     bf  303 -   303        -13.098308254162         -1.452184427487          0.109441010347
      0.1873113696D+02  0.3349460434D-01
      0.2825394365D+01  0.2347269535D+00
      0.6401216923D+00  0.8137573261D+00
 Atom H30      Shell   101 S   1     bf  304 -   304        -13.098308254162         -1.452184427487          0.109441010347
      0.1612777588D+00  0.1000000000D+01
 Atom H31      Shell   102 S   3     bf  305 -   305         -9.553401439116          4.278700552208          4.748611439652
      0.1873113696D+02  0.3349460434D-01
      0.2825394365D+01  0.2347269535D+00
      0.6401216923D+00  0.8137573261D+00
 Atom H31      Shell   103 S   1     bf  306 -   306         -9.553401439116          4.278700552208          4.748611439652
      0.1612777588D+00  0.1000000000D+01
 Atom H32      Shell   104 S   3     bf  307 -   307          6.163563597629         -6.899158137821          1.803549805362
      0.1873113696D+02  0.3349460434D-01
      0.2825394365D+01  0.2347269535D+00
      0.6401216923D+00  0.8137573261D+00
 Atom H32      Shell   105 S   1     bf  308 -   308          6.163563597629         -6.899158137821          1.803549805362
      0.1612777588D+00  0.1000000000D+01
 Atom H33      Shell   106 S   3     bf  309 -   309         11.457433910567         -0.719221481768          1.769593749360
      0.1873113696D+02  0.3349460434D-01
      0.2825394365D+01  0.2347269535D+00
      0.6401216923D+00  0.8137573261D+00
 Atom H33      Shell   107 S   1     bf  310 -   310         11.457433910567         -0.719221481768          1.769593749360
      0.1612777588D+00  0.1000000000D+01
 Atom H34      Shell   108 S   3     bf  311 -   311        -13.331626127085          1.678987839343          3.632309115968
      0.1873113696D+02  0.3349460434D-01
      0.2825394365D+01  0.2347269535D+00
      0.6401216923D+00  0.8137573261D+00
 Atom H34      Shell   109 S   1     bf  312 -   312        -13.331626127085          1.678987839343          3.632309115968
      0.1612777588D+00  0.1000000000D+01
 Atom Co35     Shell   110 S   3     bf  313 -   313         -0.789838056903         -2.734333792950         -0.982642606693
      0.2090800100D+02  0.3980531823D+00
      0.1390623400D+02 -0.6490522972D+00
      0.7328543000D+01 -0.7234533313D+00
 Atom Co35     Shell   111 S   1     bf  314 -   314         -0.789838056903         -2.734333792950         -0.982642606693
      0.2136324000D+01  0.1000000000D+01
 Atom Co35     Shell   112 S   1     bf  315 -   315         -0.789838056903         -2.734333792950         -0.982642606693
      0.8528220000D+00  0.1000000000D+01
 Atom Co35     Shell   113 S   1     bf  316 -   316         -0.789838056903         -2.734333792950         -0.982642606693
      0.1066920000D+00  0.1000000000D+01
 Atom Co35     Shell   114 S   1     bf  317 -   317         -0.789838056903         -2.734333792950         -0.982642606693
      0.3934600000D-01  0.1000000000D+01
 Atom Co35     Shell   115 S   1     bf  318 -   318         -0.789838056903         -2.734333792950         -0.982642606693
      0.1000000000D-01  0.1000000000D+01
 Atom Co35     Shell   116 P   2     bf  319 -   321         -0.789838056903         -2.734333792950         -0.982642606693
      0.6703444300D+02  0.2936999842D-01
      0.1326233400D+02 -0.1013625945D+01
 Atom Co35     Shell   117 P   2     bf  322 -   324         -0.789838056903         -2.734333792950         -0.982642606693
      0.5690650000D+01  0.2038648887D+00
      0.2271940000D+01  0.8336445450D+00
 Atom Co35     Shell   118 P   1     bf  325 -   327         -0.789838056903         -2.734333792950         -0.982642606693
      0.7889110000D+00  0.1000000000D+01
 Atom Co35     Shell   119 P   1     bf  328 -   330         -0.789838056903         -2.734333792950         -0.982642606693
      0.1183550000D+00  0.1000000000D+01
 Atom Co35     Shell   120 P   1     bf  331 -   333         -0.789838056903         -2.734333792950         -0.982642606693
      0.3059400000D-01  0.1000000000D+01
 Atom Co35     Shell   121 D   4     bf  334 -   338         -0.789838056903         -2.734333792950         -0.982642606693
      0.3684052000D+02  0.3805602385D-01
      0.1117367500D+02  0.1889251184D+00
      0.3797564000D+01  0.4410512764D+00
      0.1239262000D+01  0.5656973546D+00
 Atom Co35     Shell   122 D   1     bf  339 -   343         -0.789838056903         -2.734333792950         -0.982642606693
      0.3394000000D+00  0.1000000000D+01
 Atom Co35     Shell   123 D   1     bf  344 -   348         -0.789838056903         -2.734333792950         -0.982642606693
      0.9000000000D-01  0.1000000000D+01
 Atom Co35     Shell   124 F   1     bf  349 -   355         -0.789838056903         -2.734333792950         -0.982642606693
      0.2200000000D+01  0.1000000000D+01
 There are   381 symmetry adapted cartesian basis functions of A   symmetry.
 There are   355 symmetry adapted basis functions of A   symmetry.
   355 basis functions,   715 primitive gaussians,   381 cartesian basis functions
    84 alpha electrons       83 beta electrons
       nuclear repulsion energy      1851.2199299800 Hartrees.
 IExCor=  608 DFT=T Ex=PW91 Corr=PW91 ExCW=0 ScaHFX=  0.000000
 ScaDFX=  1.000000  1.000000  1.000000  1.000000 ScalE2=  1.000000  1.000000
 IRadAn=      0 IRanWt=     -1 IRanGd=            0 ICorTp=0 IEmpDi=  4
 NAtoms=   35 NActive=   35 NUniq=   35 SFac= 1.00D+00 NAtFMM=   60 NAOKFM=F Big=F
 Integral buffers will be    131072 words long.
 Regular integral format.
 Two-electron integral symmetry is turned on.
 Leave Link  301 at Tue Mar 10 21:17:49 2020, MaxMem=   268435456 cpu:         2.5
 (Enter /opt/gaussian/g09/l302.exe)
[...]
 RMSU=  3.00D-06    CP:  1.00D+00  9.91D-01  2.01D+00  3.00D+00  3.00D+00
                    CP:  3.00D+00  3.00D+00  3.00D+00  3.00D+00  3.00D+00
                    CP:  3.00D+00  1.35D+00  1.10D+00
 E= -1420.24692887573     Delta-E=       -0.000007527725 Rises=F Damp=F
 DIIS: error= 9.24D-05 at cycle  54 NSaved=  20.
 NSaved=20 IEnMin=20 EnMin= -1420.24692887573     IErMin=15 ErrMin= 9.07D-05
 ErrMax= 9.24D-05  0.00D+00 EMaxC= 1.00D-01 BMatC= 5.09D-06 BMatP= 8.16D-06
 IDIUse=1 WtCom= 1.00D+00 WtEn= 0.00D+00
 Coeff-Com:  0.920D-02-0.167D-01-0.237D-01 0.243D-01 0.376D-01 0.347D-01
 Coeff-Com:  0.163D+00-0.336D+00 0.366D-01-0.138D+00-0.618D-01 0.329D+00
 Coeff-Com:  0.528D-01 0.121D+00-0.232D+00 0.894D-02-0.652D+00-0.429D+00
 Coeff-Com:  0.111D+01 0.967D+00
 Coeff:      0.920D-02-0.167D-01-0.237D-01 0.243D-01 0.376D-01 0.347D-01
 Coeff:      0.163D+00-0.336D+00 0.366D-01-0.138D+00-0.618D-01 0.329D+00
 Coeff:      0.528D-01 0.121D+00-0.232D+00 0.894D-02-0.652D+00-0.429D+00
 Coeff:      0.111D+01 0.967D+00
 Gap=     0.001 Goal=   None    Shift=    0.000
 Gap=     0.043 Goal=   None    Shift=    0.000
 RMSDP=2.91D-05 MaxDP=4.56D-03 DE=-7.53D-06 OVMax= 9.92D-03

 Cycle  55  Pass 1  IDiag  1:
 RMSU=  2.73D-06    CP:  1.00D+00  1.10D+00  2.25D+00  3.00D+00  3.00D+00
                    CP:  3.00D+00  3.00D+00  3.00D+00  3.00D+00  3.00D+00
                    CP:  3.00D+00  2.21D+00  3.00D+00  1.49D+00
 E= -1420.24692793546     Delta-E=        0.000000940268 Rises=F Damp=F
 DIIS: error= 1.04D-04 at cycle  55 NSaved=  20.
 NSaved=20 IEnMin=19 EnMin= -1420.24692887573     IErMin=14 ErrMin= 9.07D-05
 ErrMax= 1.04D-04  0.00D+00 EMaxC= 1.00D-01 BMatC= 8.29D-06 BMatP= 5.09D-06
 IDIUse=1 WtCom= 1.00D+00 WtEn= 0.00D+00
 Coeff-Com: -0.142D-01-0.250D-01 0.319D-01-0.142D-01 0.573D-01 0.196D+00
 Coeff-Com: -0.346D+00-0.118D+00-0.147D+00 0.356D-01 0.371D+00 0.402D+00
 Coeff-Com:  0.343D+00-0.269D+00-0.577D+00-0.895D+00-0.615D+00 0.991D+00
 Coeff-Com:  0.103D+01 0.566D+00
 Coeff:     -0.142D-01-0.250D-01 0.319D-01-0.142D-01 0.573D-01 0.196D+00
 Coeff:     -0.346D+00-0.118D+00-0.147D+00 0.356D-01 0.371D+00 0.402D+00
 Coeff:      0.343D+00-0.269D+00-0.577D+00-0.895D+00-0.615D+00 0.991D+00
 Coeff:      0.103D+01 0.566D+00
 Gap=     0.001 Goal=   None    Shift=    0.000
 Gap=     0.043 Goal=   None    Shift=    0.000
 RMSDP=1.08D-05 MaxDP=1.41D-03 DE= 9.40D-07 OVMax= 2.79D-03

 Cycle  56  Pass 1  IDiag  1:
 RMSU=  4.13D-06    CP:  1.00D+00  1.16D+00  2.34D+00  3.00D+00  3.00D+00
                    CP:  3.00D+00  3.00D+00  3.00D+00  3.00D+00  3.00D+00
                    CP:  3.00D+00  2.47D+00  3.00D+00  2.85D+00  2.21D+00
 E= -1420.24692516042     Delta-E=        0.000002775038 Rises=F Damp=F
 DIIS: error= 1.48D-04 at cycle  56 NSaved=  20.
 NSaved=20 IEnMin=18 EnMin= -1420.24692887573     IErMin=13 ErrMin= 9.07D-05
 ErrMax= 1.48D-04  0.00D+00 EMaxC= 1.00D-01 BMatC= 1.31D-05 BMatP= 5.09D-06
 IDIUse=1 WtCom= 1.00D+00 WtEn= 0.00D+00
 Coeff-Com:  0.925D-02 0.428D-02-0.652D-01 0.327D-01 0.105D+00-0.142D+00
 Coeff-Com: -0.611D-01 0.108D+00 0.442D-01 0.760D-01-0.252D-01 0.117D+00
 Coeff-Com: -0.756D-01-0.213D+00-0.230D+00-0.502D+00 0.253D+00 0.537D+00
 Coeff-Com:  0.679D+00 0.350D+00
 Coeff:      0.925D-02 0.428D-02-0.652D-01 0.327D-01 0.105D+00-0.142D+00
 Coeff:     -0.611D-01 0.108D+00 0.442D-01 0.760D-01-0.252D-01 0.117D+00
 Coeff:     -0.756D-01-0.213D+00-0.230D+00-0.502D+00 0.253D+00 0.537D+00
 Coeff:      0.679D+00 0.350D+00
 Gap=     0.001 Goal=   None    Shift=    0.000
 Gap=     0.043 Goal=   None    Shift=    0.000
 RMSDP=1.91D-05 MaxDP=1.68D-03 DE= 2.78D-06 OVMax= 8.37D-03

 Cycle  57  Pass 1  IDiag  1:
 RMSU=  2.55D-06    CP:  1.00D+00  1.04D+00  2.03D+00  3.00D+00  3.00D+00
                    CP:  3.00D+00  3.00D+00  3.00D+00  3.00D+00  3.00D+00
                    CP:  3.00D+00  2.70D+00  3.00D+00  2.95D+00  3.00D+00
                    CP:  1.66D+00
 E= -1420.24693099227     Delta-E=       -0.000005831846 Rises=F Damp=F
 DIIS: error= 5.89D-05 at cycle  57 NSaved=  20.
 NSaved=20 IEnMin=20 EnMin= -1420.24693099227     IErMin=20 ErrMin= 5.89D-05
 ErrMax= 5.89D-05  0.00D+00 EMaxC= 1.00D-01 BMatC= 2.63D-06 BMatP= 5.09D-06
 IDIUse=1 WtCom= 1.00D+00 WtEn= 0.00D+00
 Coeff-Com: -0.153D-01-0.496D-02 0.300D-01 0.709D-01-0.642D-01-0.391D-02
 Coeff-Com:  0.228D-02-0.143D-01 0.493D-03-0.151D-01 0.526D-01-0.234D-01
 Coeff-Com: -0.150D+00-0.235D+00-0.174D+00 0.676D-01 0.440D+00 0.368D+00
 Coeff-Com:  0.295D+00 0.373D+00
 Coeff:     -0.153D-01-0.496D-02 0.300D-01 0.709D-01-0.642D-01-0.391D-02
 Coeff:      0.228D-02-0.143D-01 0.493D-03-0.151D-01 0.526D-01-0.234D-01
 Coeff:     -0.150D+00-0.235D+00-0.174D+00 0.676D-01 0.440D+00 0.368D+00
 Coeff:      0.295D+00 0.373D+00
 Gap=     0.001 Goal=   None    Shift=    0.000
 Gap=     0.043 Goal=   None    Shift=    0.000
 RMSDP=1.71D-05 MaxDP=2.75D-03 DE=-5.83D-06 OVMax= 5.85D-03

 Cycle  58  Pass 1  IDiag  1:
 RMSU=  7.93D-06    CP:  1.00D+00  1.07D+00  2.19D+00  3.00D+00  3.00D+00
                    CP:  3.00D+00  3.00D+00  3.00D+00  3.00D+00  3.00D+00
                    CP:  3.00D+00  3.00D+00  3.00D+00  2.66D+00  3.00D+00
                    CP:  2.98D+00  2.50D+00
 E= -1420.24693237682     Delta-E=       -0.000001384550 Rises=F Damp=F
 DIIS: error= 5.38D-06 at cycle  58 NSaved=  20.
 NSaved=20 IEnMin=20 EnMin= -1420.24693237682     IErMin=20 ErrMin= 5.38D-06
 ErrMax= 5.38D-06  0.00D+00 EMaxC= 1.00D-01 BMatC= 3.03D-08 BMatP= 2.63D-06
 IDIUse=1 WtCom= 1.00D+00 WtEn= 0.00D+00
 Coeff-Com: -0.673D-02 0.219D-02 0.137D-01-0.434D-01 0.195D-01 0.177D-01
 Coeff-Com:  0.311D-01-0.362D-02-0.110D-01-0.431D-01-0.581D-01-0.341D-01
 Coeff-Com: -0.466D-01 0.108D+00-0.934D-01 0.145D+00 0.505D-01 0.117D+00
 Coeff-Com:  0.234D+00 0.601D+00
 Coeff:     -0.673D-02 0.219D-02 0.137D-01-0.434D-01 0.195D-01 0.177D-01
 Coeff:      0.311D-01-0.362D-02-0.110D-01-0.431D-01-0.581D-01-0.341D-01
 Coeff:     -0.466D-01 0.108D+00-0.934D-01 0.145D+00 0.505D-01 0.117D+00
 Coeff:      0.234D+00 0.601D+00
 Gap=     0.001 Goal=   None    Shift=    0.000
 Gap=     0.043 Goal=   None    Shift=    0.000
 RMSDP=3.05D-06 MaxDP=2.52D-04 DE=-1.38D-06 OVMax= 1.25D-03

 Cycle  59  Pass 1  IDiag  1:
 RMSU=  1.04D-06    CP:  1.00D+00  1.05D+00  2.15D+00  3.00D+00  3.00D+00
                    CP:  3.00D+00  3.00D+00  3.00D+00  3.00D+00  3.00D+00
                    CP:  3.00D+00  3.00D+00  3.00D+00  2.71D+00  3.00D+00
                    CP:  3.00D+00  2.67D+00  1.13D+00
 E= -1420.24693204706     Delta-E=        0.000000329762 Rises=F Damp=F
 DIIS: error= 3.16D-05 at cycle  59 NSaved=  20.
 NSaved=20 IEnMin=19 EnMin= -1420.24693237682     IErMin=19 ErrMin= 5.38D-06
 ErrMax= 3.16D-05  0.00D+00 EMaxC= 1.00D-01 BMatC= 6.27D-07 BMatP= 3.03D-08
 IDIUse=1 WtCom= 1.00D+00 WtEn= 0.00D+00
 Coeff-Com:  0.464D-02-0.136D-02-0.528D-01 0.149D-01 0.255D-02 0.374D-01
 Coeff-Com:  0.118D-01 0.107D-01-0.547D-01-0.627D-01 0.862D-01 0.420D-01
 Coeff-Com:  0.980D-01-0.135D+00 0.711D-02-0.117D+00-0.255D-01 0.587D-01
 Coeff-Com:  0.492D-01 0.102D+01
 Coeff:      0.464D-02-0.136D-02-0.528D-01 0.149D-01 0.255D-02 0.374D-01
 Coeff:      0.118D-01 0.107D-01-0.547D-01-0.627D-01 0.862D-01 0.420D-01
 Coeff:      0.980D-01-0.135D+00 0.711D-02-0.117D+00-0.255D-01 0.587D-01
 Coeff:      0.492D-01 0.102D+01
 Gap=     0.000 Goal=   None    Shift=    0.000
 Gap=     0.043 Goal=   None    Shift=    0.000
 RMSDP=1.60D-06 MaxDP=2.25D-04 DE= 3.30D-07 OVMax= 4.85D-04

 Cycle  60  Pass 1  IDiag  1:
 RMSU=  3.16D-07    CP:  1.00D+00  1.05D+00  2.14D+00  3.00D+00  3.00D+00
                    CP:  3.00D+00  3.00D+00  3.00D+00  3.00D+00  3.00D+00
                    CP:  3.00D+00  3.00D+00  3.00D+00  2.84D+00  3.00D+00
                    CP:  3.00D+00  2.77D+00  1.26D+00  2.04D+00
 E= -1420.24693199816     Delta-E=        0.000000048901 Rises=F Damp=F
 DIIS: error= 3.47D-05 at cycle  60 NSaved=  20.
 NSaved=20 IEnMin=18 EnMin= -1420.24693237682     IErMin=18 ErrMin= 5.38D-06
 ErrMax= 3.47D-05  0.00D+00 EMaxC= 1.00D-01 BMatC= 7.68D-07 BMatP= 3.03D-08
 IDIUse=1 WtCom= 1.00D+00 WtEn= 0.00D+00
 Coeff-Com:  0.301D-02-0.338D-01 0.123D-01-0.304D-02 0.123D-01 0.136D-01
 Coeff-Com: -0.955D-03-0.324D-01-0.452D-01 0.101D+00 0.405D-01 0.911D-04
 Coeff-Com: -0.815D-01 0.176D-01-0.495D-01-0.227D-01 0.729D-03-0.234D+00
 Coeff-Com:  0.651D+00 0.651D+00
 Coeff:      0.301D-02-0.338D-01 0.123D-01-0.304D-02 0.123D-01 0.136D-01
 Coeff:     -0.955D-03-0.324D-01-0.452D-01 0.101D+00 0.405D-01 0.911D-04
 Coeff:     -0.815D-01 0.176D-01-0.495D-01-0.227D-01 0.729D-03-0.234D+00
 Coeff:      0.651D+00 0.651D+00
 Gap=     0.001 Goal=   None    Shift=    0.000
 Gap=     0.043 Goal=   None    Shift=    0.000
 RMSDP=3.00D-06 MaxDP=2.56D-04 DE= 4.89D-08 OVMax= 1.25D-03

 Cycle  61  Pass 1  IDiag  1:
 Restarting incremental Fock formation.
 E= -1420.24693239608     Delta-E=       -0.000000397923 Rises=F Damp=F
 DIIS: error= 4.14D-06 at cycle  61 NSaved=  20.
 NSaved=20 IEnMin=20 EnMin= -1420.24693239608     IErMin=20 ErrMin= 4.14D-06
 ErrMax= 4.14D-06  0.00D+00 EMaxC= 1.00D-01 BMatC= 1.29D-08 BMatP= 3.03D-08
 IDIUse=1 WtCom= 1.00D+00 WtEn= 0.00D+00
 Coeff-Com:  0.136D-02 0.747D-02 0.746D-03-0.985D-02-0.358D-02-0.185D-01
 Coeff-Com: -0.792D-02-0.168D-01 0.762D-01 0.385D-01-0.419D-01-0.233D-01
 Coeff-Com: -0.691D-02 0.151D-01-0.527D-02-0.388D-01-0.358D+00 0.509D-01
 Coeff-Com:  0.645D+00 0.695D+00
 Coeff:      0.136D-02 0.747D-02 0.746D-03-0.985D-02-0.358D-02-0.185D-01
 Coeff:     -0.792D-02-0.168D-01 0.762D-01 0.385D-01-0.419D-01-0.233D-01
 Coeff:     -0.691D-02 0.151D-01-0.527D-02-0.388D-01-0.358D+00 0.509D-01
 Coeff:      0.645D+00 0.695D+00
 Gap=     0.000 Goal=   None    Shift=    0.000
 Gap=     0.043 Goal=   None    Shift=    0.000
 RMSDP=6.76D-07 MaxDP=9.12D-05 DE=-3.98D-07 OVMax= 1.95D-04

 Cycle  62  Pass 1  IDiag  1:
 RMSU=  6.76D-07    CP:  1.00D+00
 E= -1420.24693240097     Delta-E=       -0.000000004889 Rises=F Damp=F
 DIIS: error= 3.25D-06 at cycle  62 NSaved=  20.
 NSaved=20 IEnMin=20 EnMin= -1420.24693240097     IErMin=20 ErrMin= 3.25D-06
 ErrMax= 3.25D-06  0.00D+00 EMaxC= 1.00D-01 BMatC= 6.55D-09 BMatP= 1.29D-08
 IDIUse=1 WtCom= 1.00D+00 WtEn= 0.00D+00
 Coeff-Com:  0.129D-02 0.317D-02 0.161D-02 0.313D-02-0.143D-01 0.105D-02
 Coeff-Com: -0.105D-01 0.769D-02-0.133D-03-0.235D-01 0.261D-01 0.300D-02
 Coeff-Com:  0.325D-01 0.132D-01-0.134D-01-0.113D+00-0.187D+00 0.143D+00
 Coeff-Com:  0.466D+00 0.661D+00
 Coeff:      0.129D-02 0.317D-02 0.161D-02 0.313D-02-0.143D-01 0.105D-02
 Coeff:     -0.105D-01 0.769D-02-0.133D-03-0.235D-01 0.261D-01 0.300D-02
 Coeff:      0.325D-01 0.132D-01-0.134D-01-0.113D+00-0.187D+00 0.143D+00
 Coeff:      0.466D+00 0.661D+00
 Gap=     0.000 Goal=   None    Shift=    0.000
 Gap=     0.043 Goal=   None    Shift=    0.000
 RMSDP=2.84D-07 MaxDP=3.23D-05 DE=-4.89D-09 OVMax= 7.72D-05

 Cycle  63  Pass 1  IDiag  1:
 RMSU=  2.21D-07    CP:  1.00D+00  1.26D+00
 E= -1420.24693240432     Delta-E=       -0.000000003350 Rises=F Damp=F
 DIIS: error= 1.27D-06 at cycle  63 NSaved=  20.
 NSaved=20 IEnMin=20 EnMin= -1420.24693240432     IErMin=20 ErrMin= 1.27D-06
 ErrMax= 1.27D-06  0.00D+00 EMaxC= 1.00D-01 BMatC= 1.14D-09 BMatP= 6.55D-09
 IDIUse=1 WtCom= 1.00D+00 WtEn= 0.00D+00
 Coeff-Com:  0.133D-02 0.489D-02 0.184D-02-0.713D-02 0.396D-02 0.131D-02
 Coeff-Com: -0.188D-01-0.145D-01-0.833D-02 0.309D-01 0.335D-02 0.230D-01
 Coeff-Com:  0.125D-01-0.193D-02 0.295D-01-0.165D+00-0.130D+00 0.153D+00
 Coeff-Com:  0.474D+00 0.607D+00
 Coeff:      0.133D-02 0.489D-02 0.184D-02-0.713D-02 0.396D-02 0.131D-02
 Coeff:     -0.188D-01-0.145D-01-0.833D-02 0.309D-01 0.335D-02 0.230D-01
 Coeff:      0.125D-01-0.193D-02 0.295D-01-0.165D+00-0.130D+00 0.153D+00
 Coeff:      0.474D+00 0.607D+00
 Gap=     0.001 Goal=   None    Shift=    0.000
 Gap=     0.043 Goal=   None    Shift=    0.000
 RMSDP=2.31D-07 MaxDP=2.90D-05 DE=-3.35D-09 OVMax= 4.96D-05

 Cycle  64  Pass 1  IDiag  1:
 RMSU=  1.22D-07    CP:  1.00D+00  1.54D+00  1.30D+00
 E= -1420.24693240474     Delta-E=       -0.000000000423 Rises=F Damp=F
 DIIS: error= 1.24D-06 at cycle  64 NSaved=  20.
 NSaved=20 IEnMin=20 EnMin= -1420.24693240474     IErMin=20 ErrMin= 1.24D-06
 ErrMax= 1.24D-06  0.00D+00 EMaxC= 1.00D-01 BMatC= 1.14D-09 BMatP= 1.14D-09
 IDIUse=1 WtCom= 1.00D+00 WtEn= 0.00D+00
 Coeff-Com:  0.491D-02-0.436D-02 0.265D-02 0.458D-02 0.155D-01-0.304D-01
 Coeff-Com: -0.141D-01 0.106D-01 0.660D-02 0.114D-03 0.643D-03 0.120D-02
 Coeff-Com:  0.647D-02 0.162D+00-0.676D-01-0.277D+00-0.164D+00 0.168D-01
 Coeff-Com:  0.329D+00 0.996D+00
 Coeff:      0.491D-02-0.436D-02 0.265D-02 0.458D-02 0.155D-01-0.304D-01
 Coeff:     -0.141D-01 0.106D-01 0.660D-02 0.114D-03 0.643D-03 0.120D-02
 Coeff:      0.647D-02 0.162D+00-0.676D-01-0.277D+00-0.164D+00 0.168D-01
 Coeff:      0.329D+00 0.996D+00
 Gap=     0.001 Goal=   None    Shift=    0.000
 Gap=     0.043 Goal=   None    Shift=    0.000
 RMSDP=2.92D-07 MaxDP=3.91D-05 DE=-4.23D-10 OVMax= 6.34D-05

 Cycle  65  Pass 1  IDiag  1:
 RMSU=  7.91D-08    CP:  1.00D+00  1.86D+00  1.75D+00  2.21D+00
 E= -1420.24693240501     Delta-E=       -0.000000000268 Rises=F Damp=F
 DIIS: error= 1.45D-06 at cycle  65 NSaved=  20.
 NSaved=20 IEnMin=20 EnMin= -1420.24693240501     IErMin=19 ErrMin= 1.24D-06
 ErrMax= 1.45D-06  0.00D+00 EMaxC= 1.00D-01 BMatC= 1.49D-09 BMatP= 1.14D-09
 IDIUse=1 WtCom= 1.00D+00 WtEn= 0.00D+00
 Coeff-Com: -0.736D-02 0.878D-02 0.321D-02 0.173D-01-0.138D-01-0.125D-02
 Coeff-Com:  0.127D-01-0.190D-01-0.344D-02-0.161D-01-0.131D-01-0.449D-05
 Coeff-Com:  0.138D+00 0.584D-01-0.166D+00-0.242D+00-0.365D+00-0.278D+00
 Coeff-Com:  0.929D+00 0.957D+00
 Coeff:     -0.736D-02 0.878D-02 0.321D-02 0.173D-01-0.138D-01-0.125D-02
 Coeff:      0.127D-01-0.190D-01-0.344D-02-0.161D-01-0.131D-01-0.449D-05
 Coeff:      0.138D+00 0.584D-01-0.166D+00-0.242D+00-0.365D+00-0.278D+00
 Coeff:      0.929D+00 0.957D+00
 Gap=     0.001 Goal=   None    Shift=    0.000
 Gap=     0.043 Goal=   None    Shift=    0.000
 RMSDP=3.10D-07 MaxDP=5.50D-05 DE=-2.68D-10 OVMax= 6.13D-05

 Cycle  66  Pass 1  IDiag  1:
 RMSU=  8.33D-08    CP:  1.00D+00  2.07D+00  2.75D+00  2.53D+00  2.71D+00
 E= -1420.24693240598     Delta-E=       -0.000000000970 Rises=F Damp=F
 DIIS: error= 5.73D-07 at cycle  66 NSaved=  20.
 NSaved=20 IEnMin=20 EnMin= -1420.24693240598     IErMin=20 ErrMin= 5.73D-07
 ErrMax= 5.73D-07  0.00D+00 EMaxC= 1.00D-01 BMatC= 2.30D-10 BMatP= 1.14D-09
 IDIUse=1 WtCom= 1.00D+00 WtEn= 0.00D+00
 Coeff-Com: -0.300D-02-0.208D-03 0.319D-02 0.530D-02 0.631D-02-0.104D-02
 Coeff-Com: -0.116D-01 0.118D-02-0.213D-02-0.565D-02-0.349D-02 0.628D-02
 Coeff-Com:  0.216D-01 0.367D-01-0.107D-01-0.103D+00-0.385D+00-0.510D-01
 Coeff-Com:  0.586D+00 0.911D+00
 Coeff:     -0.300D-02-0.208D-03 0.319D-02 0.530D-02 0.631D-02-0.104D-02
 Coeff:     -0.116D-01 0.118D-02-0.213D-02-0.565D-02-0.349D-02 0.628D-02
 Coeff:      0.216D-01 0.367D-01-0.107D-01-0.103D+00-0.385D+00-0.510D-01
 Coeff:      0.586D+00 0.911D+00
 Gap=     0.001 Goal=   None    Shift=    0.000
 Gap=     0.043 Goal=   None    Shift=    0.000
 RMSDP=2.97D-07 MaxDP=2.43D-05 DE=-9.70D-10 OVMax= 1.09D-04

 Cycle  67  Pass 1  IDiag  1:
 RMSU=  1.88D-07    CP:  1.00D+00  2.29D+00  3.00D+00  1.80D+00  2.66D+00
                    CP:  1.33D+00
 E= -1420.24693240440     Delta-E=        0.000000001573 Rises=F Damp=F
 DIIS: error= 2.27D-06 at cycle  67 NSaved=  20.
 NSaved=20 IEnMin=19 EnMin= -1420.24693240598     IErMin=19 ErrMin= 5.73D-07
 ErrMax= 2.27D-06  0.00D+00 EMaxC= 1.00D-01 BMatC= 3.29D-09 BMatP= 2.30D-10
 IDIUse=1 WtCom= 1.00D+00 WtEn= 0.00D+00
 Coeff-Com: -0.102D-02-0.215D-03 0.100D-02 0.200D-02 0.431D-02-0.283D-02
 Coeff-Com:  0.193D-02-0.362D-02-0.255D-02 0.320D-02 0.993D-03 0.457D-01
 Coeff-Com:  0.679D-02-0.654D-01-0.790D-01-0.109D+00-0.787D-01 0.805D-01
 Coeff-Com:  0.341D+00 0.855D+00
 Coeff:     -0.102D-02-0.215D-03 0.100D-02 0.200D-02 0.431D-02-0.283D-02
 Coeff:      0.193D-02-0.362D-02-0.255D-02 0.320D-02 0.993D-03 0.457D-01
 Coeff:      0.679D-02-0.654D-01-0.790D-01-0.109D+00-0.787D-01 0.805D-01
 Coeff:      0.341D+00 0.855D+00
 Gap=     0.001 Goal=   None    Shift=    0.000
 Gap=     0.043 Goal=   None    Shift=    0.000
 RMSDP=4.45D-07 MaxDP=5.55D-05 DE= 1.57D-09 OVMax= 1.43D-04

 Cycle  68  Pass 1  IDiag  1:
 RMSU=  2.49D-07    CP:  1.00D+00  1.90D+00  3.00D+00  3.00D+00  3.00D+00
                    CP:  2.02D+00  3.24D-01
 E= -1420.24693240577     Delta-E=       -0.000000001366 Rises=F Damp=F
 DIIS: error= 1.18D-06 at cycle  68 NSaved=  20.
 NSaved=20 IEnMin=18 EnMin= -1420.24693240598     IErMin=18 ErrMin= 5.73D-07
 ErrMax= 1.18D-06  0.00D+00 EMaxC= 1.00D-01 BMatC= 9.27D-10 BMatP= 2.30D-10
 IDIUse=1 WtCom= 1.00D+00 WtEn= 0.00D+00
 Coeff-Com: -0.125D-02 0.881D-03 0.249D-03 0.602D-03 0.307D-03-0.289D-03
 Coeff-Com: -0.176D-02-0.708D-03 0.765D-03-0.623D-02-0.255D-03 0.842D-02
 Coeff-Com: -0.794D-02 0.188D-01 0.158D-01-0.642D-01-0.992D-01-0.493D-02
 Coeff-Com:  0.454D+00 0.687D+00
 Coeff:     -0.125D-02 0.881D-03 0.249D-03 0.602D-03 0.307D-03-0.289D-03
 Coeff:     -0.176D-02-0.708D-03 0.765D-03-0.623D-02-0.255D-03 0.842D-02
 Coeff:     -0.794D-02 0.188D-01 0.158D-01-0.642D-01-0.992D-01-0.493D-02
 Coeff:      0.454D+00 0.687D+00
 Gap=     0.001 Goal=   None    Shift=    0.000
 Gap=     0.043 Goal=   None    Shift=    0.000
 RMSDP=2.71D-07 MaxDP=2.85D-05 DE=-1.37D-09 OVMax= 8.83D-05

 Cycle  69  Pass 1  IDiag  1:
 RMSU=  4.30D-08    CP:  1.00D+00  2.20D+00  3.00D+00  2.70D+00  3.00D+00
                    CP:  1.96D+00  1.02D+00  6.20D-01
 E= -1420.24693240599     Delta-E=       -0.000000000224 Rises=F Damp=F
 DIIS: error= 8.68D-07 at cycle  69 NSaved=  20.
 NSaved=20 IEnMin=20 EnMin= -1420.24693240599     IErMin=17 ErrMin= 5.73D-07
 ErrMax= 8.68D-07  0.00D+00 EMaxC= 1.00D-01 BMatC= 5.14D-10 BMatP= 2.30D-10
 IDIUse=1 WtCom= 1.00D+00 WtEn= 0.00D+00
 Coeff-Com: -0.472D-03-0.272D-03 0.236D-03-0.405D-04 0.143D-03-0.106D-02
 Coeff-Com: -0.245D-03 0.593D-03-0.890D-02 0.254D-02 0.505D-02-0.859D-02
 Coeff-Com:  0.204D-01 0.785D-01-0.418D-01-0.163D+00-0.161D+00 0.285D+00
 Coeff-Com:  0.636D+00 0.358D+00
 Coeff:     -0.472D-03-0.272D-03 0.236D-03-0.405D-04 0.143D-03-0.106D-02
 Coeff:     -0.245D-03 0.593D-03-0.890D-02 0.254D-02 0.505D-02-0.859D-02
 Coeff:      0.204D-01 0.785D-01-0.418D-01-0.163D+00-0.161D+00 0.285D+00
 Coeff:      0.636D+00 0.358D+00
 Gap=     0.001 Goal=   None    Shift=    0.000
 Gap=     0.043 Goal=   None    Shift=    0.000
 RMSDP=6.24D-08 MaxDP=6.71D-06 DE=-2.24D-10 OVMax= 1.85D-05

 SCF Done:  E(UPW91-PW91) =  -1420.24693241     A.U. after   69 cycles
            NFock= 69  Conv=0.62D-07     -V/T= 2.0471
 <Sx>= 0.0000 <Sy>= 0.0000 <Sz>= 0.5000 <S**2>= 2.3473 S= 1.1116
 <L.S>= 0.000000000000E+00
 KE= 1.356394687173D+03 PE=-6.996231735985D+03 EE= 2.368370186426D+03
 Annihilation of the first spin contaminant:
 S**2 before annihilation     2.3473,   after     2.6288
 Leave Link  502 at Tue Mar 10 21:25:56 2020, MaxMem=   268435456 cpu:      7646.8
 (Enter /opt/gaussian/g09/l801.exe)
 ExpMin= 1.00D-02 ExpMax= 2.19D+04 ExpMxC= 3.30D+03 IAcc=3 IRadAn=         5 AccDes= 0.00D+00
 HarFok:  IExCor=  205 AccDes= 0.00D+00 IRadAn=         5 IDoV=-2 UseB2=F ITyADJ=14
 ICtDFT= 12500011 ScaDFX=  1.000000  1.000000  1.000000  1.000000
 Largest valence mixing into a core orbital is  4.53D-04
 Largest core mixing into a valence orbital is  5.62D-05
 Largest valence mixing into a core orbital is  1.03D-03
 Largest core mixing into a valence orbital is  8.75D-05
 Range of M.O.s used for correlation:    29   355
 NBasis=   355 NAE=    84 NBE=    83 NFC=    28 NFV=     0
 NROrb=    327 NOA=    56 NOB=    55 NVA=   271 NVB=   272

 **** Fatal Problem: The smallest alpha delta epsilon is  0.50017965D-03


 **** Warning!!: The smallest beta delta epsilon is  0.42826310D-01

 Error termination via Lnk1e in /opt/gaussian/g09/l801.exe at Tue Mar 10 21:25:58 2020.
 Job cpu time:       0 days  2 hours 10 minutes 28.5 seconds.
 File lengths (MBytes):  RWF=    124 Int=      0 D2E=      0 Chk=      4 Scr=      1
