-catch_rsh /opt/sge/default/spool/node103/active_jobs/10515.1/pe_hostfile
node103
node103
node103
node103
node103
node103
node103
node103
node103
node103
node103
node103
node103
node103
node103
node103
Got 16 slots.
node103
node103
node103
node103
node103
node103
node103
node103
node103
node103
node103
node103
node103
node103
node103
node103
 Entering Gaussian System, Link 0=/opt/gaussian/g09/g09
 Initial command:
 /opt/gaussian/g09/l1.exe "/work/Gau-141411.inp" -scrdir="/work/"
 Entering Link 1 = /opt/gaussian/g09/l1.exe PID=    141412.
  
 Copyright (c) 1988,1990,1992,1993,1995,1998,2003,2009,2013,
            Gaussian, Inc.  All Rights Reserved.
  
 This is part of the Gaussian(R) 09 program.  It is based on
 the Gaussian(R) 03 system (copyright 2003, Gaussian, Inc.),
 the Gaussian(R) 98 system (copyright 1998, Gaussian, Inc.),
 the Gaussian(R) 94 system (copyright 1995, Gaussian, Inc.),
 the Gaussian 92(TM) system (copyright 1992, Gaussian, Inc.),
 the Gaussian 90(TM) system (copyright 1990, Gaussian, Inc.),
 the Gaussian 88(TM) system (copyright 1988, Gaussian, Inc.),
 the Gaussian 86(TM) system (copyright 1986, Carnegie Mellon
 University), and the Gaussian 82(TM) system (copyright 1983,
 Carnegie Mellon University). Gaussian is a federally registered
 trademark of Gaussian, Inc.
  
 This software contains proprietary and confidential information,
 including trade secrets, belonging to Gaussian, Inc.
  
 This software is provided under written license and may be
 used, copied, transmitted, or stored only in accord with that
 written license.
  
 The following legend is applicable only to US Government
 contracts under FAR:
  
                    RESTRICTED RIGHTS LEGEND
  
 Use, reproduction and disclosure by the US Government is
 subject to restrictions as set forth in subparagraphs (a)
 and (c) of the Commercial Computer Software - Restricted
 Rights clause in FAR 52.227-19.
  
 Gaussian, Inc.
 340 Quinnipiac St., Bldg. 40, Wallingford CT 06492
  
  
 ---------------------------------------------------------------
 Warning -- This program may not be used in any manner that
 competes with the business of Gaussian, Inc. or will provide
 assistance to any competitor of Gaussian, Inc.  The licensee
 of this program is prohibited from giving any competitor of
 Gaussian, Inc. access to this program.  By using this program,
 the user acknowledges that Gaussian, Inc. is engaged in the
 business of creating and licensing software in the field of
 computational chemistry and represents and warrants to the
 licensee that it is not a competitor of Gaussian, Inc. and that
 it will not use this program in any manner prohibited above.
 ---------------------------------------------------------------
  

 Cite this work as:
 Gaussian 09, Revision D.01,
 M. J. Frisch, G. W. Trucks, H. B. Schlegel, G. E. Scuseria, 
 M. A. Robb, J. R. Cheeseman, G. Scalmani, V. Barone, B. Mennucci, 
 G. A. Petersson, H. Nakatsuji, M. Caricato, X. Li, H. P. Hratchian, 
 A. F. Izmaylov, J. Bloino, G. Zheng, J. L. Sonnenberg, M. Hada, 
 M. Ehara, K. Toyota, R. Fukuda, J. Hasegawa, M. Ishida, T. Nakajima, 
 Y. Honda, O. Kitao, H. Nakai, T. Vreven, J. A. Montgomery, Jr., 
 J. E. Peralta, F. Ogliaro, M. Bearpark, J. J. Heyd, E. Brothers, 
 K. N. Kudin, V. N. Staroverov, T. Keith, R. Kobayashi, J. Normand, 
 K. Raghavachari, A. Rendell, J. C. Burant, S. S. Iyengar, J. Tomasi, 
 M. Cossi, N. Rega, J. M. Millam, M. Klene, J. E. Knox, J. B. Cross, 
 V. Bakken, C. Adamo, J. Jaramillo, R. Gomperts, R. E. Stratmann, 
 O. Yazyev, A. J. Austin, R. Cammi, C. Pomelli, J. W. Ochterski, 
 R. L. Martin, K. Morokuma, V. G. Zakrzewski, G. A. Voth, 
 P. Salvador, J. J. Dannenberg, S. Dapprich, A. D. Daniels, 
 O. Farkas, J. B. Foresman, J. V. Ortiz, J. Cioslowski, 
 and D. J. Fox, Gaussian, Inc., Wallingford CT, 2013.
 
 ******************************************
 Gaussian 09:  ES64L-G09RevD.01 24-Apr-2013
                27-Feb-2020 
 ******************************************
 %nproc=20
 Will use up to   20 processors via shared memory.
 %mem=2gb
 %chk=APA-2.chk
 --------------------------------------------------------------------
 #p PW91PW91/6-31G(d) 5d TD=(nstate=20) scf(conver=7) gfinput gfprint
 --------------------------------------------------------------------
 1/38=1/1;
 2/12=2,17=6,18=5,40=1/2;
 3/5=1,6=6,7=1,8=1,11=9,16=1,24=110,25=1,30=1,74=608/1,2,8,3;
 4//1;
 5/5=2,6=7,38=5/2;
 8/6=1,10=2,108=20/1;
 9/41=20,42=1,70=2/14;
 6/7=2,8=2,9=2,10=2/1;
 99/5=1,9=1/99;
 Leave Link    1 at Thu Feb 27 01:16:51 2020, MaxMem=   268435456 cpu:         2.7
 (Enter /opt/gaussian/g09/l101.exe)
 -----
 APA-2
 -----
 Symbolic Z-matrix:
 Charge =  0 Multiplicity = 1
 C                    -0.05896   0.70037   1.72765 
 C                    -0.8626    0.05207   0.78152 
 C                    -0.78802   0.38944  -0.56188 
 C                     0.07783   1.40548  -1.02343 
 C                     0.87206   2.0608   -0.06177 
 C                     0.80306   1.70521   1.28274 
 H                    -1.56374  -0.71424   1.11507 
 H                    -1.42333  -0.13163  -1.28397 
 H                     1.57433   2.8339   -0.36225 
 N                    -0.13936   0.37203   3.11279 
 C                     0.25694  -0.78429   3.75696 
 H                    -0.47313   1.08584   3.76415 
 O                     0.11228  -0.90047   4.97309 
 C                     0.91216  -1.85849   2.91418 
 H                     0.57866  -1.8683    1.86966 
 H                     2.00097  -1.6892    2.91644 
 H                     0.72132  -2.82847   3.38774 
 N                     0.12933   1.66027  -2.38724 
 H                    -0.59365   1.15218  -2.89431 
 H                     1.4403    2.21407   2.0086 
 C                     0.50171   2.9289   -3.0534 
 C                    -0.02247   2.82271  -4.5062 
 C                    -0.14947   4.16267  -2.38123 
 C                    -1.55203   2.84111  -4.62535 
 H                     0.39848   1.91345  -4.96912 
 H                     0.38956   3.67996  -5.06489 
 C                    -1.67808   4.15532  -2.47304 
 H                     0.16504   4.22357  -1.32846 
 H                     0.24745   5.06406  -2.88103 
 C                    -2.15227   4.06426  -3.92654 
 H                    -1.98949   1.92525  -4.1853 
 H                    -1.83624   2.82396  -5.69025 
 H                    -2.0738    3.29919  -1.89822 
 H                    -2.08104   5.06292  -1.99542 
 H                    -1.84064   4.97712  -4.46673 
 H                    -3.25282   4.02891  -3.97338 
 C                     2.03093   3.0778   -3.10636 
 H                     2.4791    2.19771  -3.59065 
 H                     2.3037    3.97595  -3.68174 
 H                     2.47334   3.1743   -2.1058 
 
 NAtoms=     40 NQM=       40 NQMF=       0 NMMI=      0 NMMIF=      0
                NMic=       0 NMicF=      0.
                    Isotopes and Nuclear Properties:
 (Nuclear quadrupole moments (NQMom) in fm**2, nuclear magnetic moments (NMagM)
  in nuclear magnetons)

  Atom         1           2           3           4           5           6           7           8           9          10
 IAtWgt=          12          12          12          12          12          12           1           1           1          14
 AtmWgt=  12.0000000  12.0000000  12.0000000  12.0000000  12.0000000  12.0000000   1.0078250   1.0078250   1.0078250  14.0030740
 NucSpn=           0           0           0           0           0           0           1           1           1           2
 AtZEff=   0.0000000   0.0000000   0.0000000   0.0000000   0.0000000   0.0000000   0.0000000   0.0000000   0.0000000   0.0000000
 NQMom=    0.0000000   0.0000000   0.0000000   0.0000000   0.0000000   0.0000000   0.0000000   0.0000000   0.0000000   2.0440000
 NMagM=    0.0000000   0.0000000   0.0000000   0.0000000   0.0000000   0.0000000   2.7928460   2.7928460   2.7928460   0.4037610
 AtZNuc=   6.0000000   6.0000000   6.0000000   6.0000000   6.0000000   6.0000000   1.0000000   1.0000000   1.0000000   7.0000000

  Atom        11          12          13          14          15          16          17          18          19          20
 IAtWgt=          12           1          16          12           1           1           1          14           1           1
 AtmWgt=  12.0000000   1.0078250  15.9949146  12.0000000   1.0078250   1.0078250   1.0078250  14.0030740   1.0078250   1.0078250
 NucSpn=           0           1           0           0           1           1           1           2           1           1
 AtZEff=   0.0000000   0.0000000   0.0000000   0.0000000   0.0000000   0.0000000   0.0000000   0.0000000   0.0000000   0.0000000
 NQMom=    0.0000000   0.0000000   0.0000000   0.0000000   0.0000000   0.0000000   0.0000000   2.0440000   0.0000000   0.0000000
 NMagM=    0.0000000   2.7928460   0.0000000   0.0000000   2.7928460   2.7928460   2.7928460   0.4037610   2.7928460   2.7928460
 AtZNuc=   6.0000000   1.0000000   8.0000000   6.0000000   1.0000000   1.0000000   1.0000000   7.0000000   1.0000000   1.0000000

  Atom        21          22          23          24          25          26          27          28          29          30
 IAtWgt=          12          12          12          12           1           1          12           1           1          12
 AtmWgt=  12.0000000  12.0000000  12.0000000  12.0000000   1.0078250   1.0078250  12.0000000   1.0078250   1.0078250  12.0000000
 NucSpn=           0           0           0           0           1           1           0           1           1           0
 AtZEff=   0.0000000   0.0000000   0.0000000   0.0000000   0.0000000   0.0000000   0.0000000   0.0000000   0.0000000   0.0000000
 NQMom=    0.0000000   0.0000000   0.0000000   0.0000000   0.0000000   0.0000000   0.0000000   0.0000000   0.0000000   0.0000000
 NMagM=    0.0000000   0.0000000   0.0000000   0.0000000   2.7928460   2.7928460   0.0000000   2.7928460   2.7928460   0.0000000
 AtZNuc=   6.0000000   6.0000000   6.0000000   6.0000000   1.0000000   1.0000000   6.0000000   1.0000000   1.0000000   6.0000000

  Atom        31          32          33          34          35          36          37          38          39          40
 IAtWgt=           1           1           1           1           1           1          12           1           1           1
 AtmWgt=   1.0078250   1.0078250   1.0078250   1.0078250   1.0078250   1.0078250  12.0000000   1.0078250   1.0078250   1.0078250
 NucSpn=           1           1           1           1           1           1           0           1           1           1
 AtZEff=   0.0000000   0.0000000   0.0000000   0.0000000   0.0000000   0.0000000   0.0000000   0.0000000   0.0000000   0.0000000
 NQMom=    0.0000000   0.0000000   0.0000000   0.0000000   0.0000000   0.0000000   0.0000000   0.0000000   0.0000000   0.0000000
 NMagM=    2.7928460   2.7928460   2.7928460   2.7928460   2.7928460   2.7928460   0.0000000   2.7928460   2.7928460   2.7928460
 AtZNuc=   1.0000000   1.0000000   1.0000000   1.0000000   1.0000000   1.0000000   6.0000000   1.0000000   1.0000000   1.0000000
 Leave Link  101 at Thu Feb 27 01:16:52 2020, MaxMem=   268435456 cpu:         3.2
 (Enter /opt/gaussian/g09/l202.exe)
                          Input orientation:                          
 ---------------------------------------------------------------------
 Center     Atomic      Atomic             Coordinates (Angstroms)
 Number     Number       Type             X           Y           Z
 ---------------------------------------------------------------------
      1          6           0       -0.058963    0.700367    1.727646
      2          6           0       -0.862602    0.052070    0.781520
      3          6           0       -0.788025    0.389442   -0.561875
      4          6           0        0.077832    1.405480   -1.023435
      5          6           0        0.872058    2.060804   -0.061766
      6          6           0        0.803058    1.705210    1.282741
      7          1           0       -1.563740   -0.714240    1.115072
      8          1           0       -1.423335   -0.131634   -1.283969
      9          1           0        1.574334    2.833904   -0.362255
     10          7           0       -0.139358    0.372033    3.112789
     11          6           0        0.256942   -0.784288    3.756964
     12          1           0       -0.473126    1.085843    3.764151
     13          8           0        0.112280   -0.900474    4.973085
     14          6           0        0.912161   -1.858492    2.914182
     15          1           0        0.578661   -1.868300    1.869657
     16          1           0        2.000971   -1.689196    2.916444
     17          1           0        0.721316   -2.828470    3.387741
     18          7           0        0.129328    1.660273   -2.387244
     19          1           0       -0.593647    1.152180   -2.894314
     20          1           0        1.440299    2.214070    2.008599
     21          6           0        0.501709    2.928902   -3.053400
     22          6           0       -0.022471    2.822708   -4.506200
     23          6           0       -0.149469    4.162671   -2.381227
     24          6           0       -1.552027    2.841113   -4.625354
     25          1           0        0.398483    1.913451   -4.969117
     26          1           0        0.389562    3.679958   -5.064894
     27          6           0       -1.678080    4.155321   -2.473044
     28          1           0        0.165043    4.223568   -1.328465
     29          1           0        0.247449    5.064064   -2.881027
     30          6           0       -2.152270    4.064258   -3.926545
     31          1           0       -1.989490    1.925248   -4.185304
     32          1           0       -1.836236    2.823962   -5.690251
     33          1           0       -2.073802    3.299185   -1.898218
     34          1           0       -2.081037    5.062924   -1.995422
     35          1           0       -1.840640    4.977115   -4.466735
     36          1           0       -3.252823    4.028909   -3.973381
     37          6           0        2.030926    3.077798   -3.106361
     38          1           0        2.479096    2.197714   -3.590648
     39          1           0        2.303695    3.975948   -3.681742
     40          1           0        2.473340    3.174304   -2.105800
 ---------------------------------------------------------------------
                    Distance matrix (angstroms):
                    1          2          3          4          5
     1  C    0.000000
     2  C    1.400457   0.000000
     3  C    2.422832   1.387117   0.000000
     4  C    2.843298   2.444175   1.412472   0.000000
     5  C    2.433020   2.784814   2.408201   1.408919   0.000000
     6  C    1.396685   2.399691   2.768646   2.436029   1.392446
     7  H    2.154232   1.090909   2.152208   3.429458   3.875426
     8  H    3.409335   2.148119   1.093873   2.164278   3.401381
     9  H    3.404016   3.871108   3.405287   2.171882   1.086816
    10  N    1.425794   2.461763   3.731519   4.268903   3.735333
    11  C    2.534192   3.287270   4.595865   5.261120   4.801627
    12  H    2.113640   3.180639   4.393022   4.829772   4.171056
    13  O    3.622829   4.407602   5.754148   6.424707   5.890344
    14  C    2.983070   3.368720   4.475133   5.182127   4.921255
    15  H    2.650430   2.636115   3.588534   4.397550   4.387976
    16  H    3.371436   3.973658   4.919141   5.366389   4.920029
    17  H    3.977114   4.195080   5.313430   6.148079   5.985551
    18  N    4.229562   3.689350   2.405934   1.388361   2.473847
    19  H    4.674670   3.846340   2.461671   2.003805   3.316205
    20  H    2.148957   3.388705   3.860315   3.421018   2.152394
    21  C    5.304632   4.984387   3.784173   2.573178   3.136977
    22  C    6.585325   6.028452   4.697292   3.761416   4.597137
    23  C    5.373879   5.235319   4.237340   3.081780   3.292607
    24  C    6.868234   6.122773   4.806895   4.206103   5.226031
    25  H    6.821105   6.174537   4.811880   3.991148   4.932351
    26  H    7.430864   6.993571   5.700121   4.647991   5.280696
    27  C    5.674861   5.300364   4.315855   3.570185   4.087110
    28  H    4.669362   4.786385   4.024489   2.835889   2.604216
    29  H    6.354181   6.306073   5.320034   4.106661   4.166287
    30  C    6.904171   6.318764   5.165892   4.524435   5.300651
    31  H    6.339578   5.426602   4.114784   3.813318   5.020995
    32  H    7.917926   7.107402   5.772856   5.239744   6.292623
    33  H    4.894929   4.380840   3.450455   2.996814   3.685680
    34  H    6.081277   5.857017   5.056517   4.356876   4.633845
    35  H    7.735329   7.263388   6.115772   5.319157   5.938632
    36  H    7.333598   6.643605   5.564110   5.165058   6.015714
    37  C    5.778186   5.713418   4.652756   3.309049   3.412742
    38  H    6.080135   5.906486   4.808054   3.603372   3.879991
    39  H    6.750783   6.733719   5.670567   4.316060   4.338386
    40  H    5.218068   5.404949   4.558033   3.168393   2.825255
                    6          7          8          9         10
     6  C    0.000000
     7  H    3.388744   0.000000
     8  H    3.862489   2.472760   0.000000
     9  H    2.138885   4.961787   4.316247   0.000000
    10  N    2.452465   2.683231   4.608011   4.590586   0.000000
    11  C    3.552130   3.209266   5.353532   5.638688   1.381700
    12  H    2.858261   3.383394   5.279078   4.926970   1.022349
    13  O    4.570055   4.210463   6.488448   6.674506   2.267884
    14  C    3.920902   3.267445   5.105003   5.761257   2.473940
    15  H    3.628333   2.547770   4.119387   5.299388   2.660831
    16  H    3.952970   4.111283   5.638736   5.602707   2.977957
    17  H    4.999196   3.854410   5.804940   6.844895   3.325594
    18  N    3.731584   4.557522   2.615131   2.750642   5.655274
    19  H    4.438966   4.527668   2.220309   3.733586   6.074562
    20  H    1.091734   4.289247   4.954163   2.454202   2.666019
    21  C    4.515567   5.908868   4.025364   2.898587   6.706000
    22  C    5.953330   6.817933   4.590569   4.440967   8.004278
    23  C    4.513434   6.165106   4.611698   2.968731   6.674822
    24  C    6.460827   6.752270   4.474219   5.286605   8.244443
    25  H    6.268395   6.911761   4.591482   4.842834   8.245148
    26  H    6.660561   7.830475   5.666588   4.922835   8.837230
    27  C    5.124940   6.049816   4.456094   4.096312   6.919716
    28  H    3.683421   5.774211   4.636022   2.202460   5.886571
    29  H    5.378436   7.255206   5.686598   3.616415   7.621720
    30  C    6.437060   6.971249   5.011992   5.301463   8.199791
    31  H    6.143798   5.936509   3.601255   5.304922   7.687498
    32  H    7.539237   7.674994   5.321781   6.326107   9.294346
    33  H    4.575542   5.044567   3.545551   3.985544   6.117229
    34  H    5.508049   6.581671   5.284143   4.582303   7.201972
    35  H    7.123972   7.976513   6.033528   5.753447   9.030522
    36  H    7.033959   7.158409   5.281106   6.145707   8.560387
    37  C    4.759818   6.717266   5.055045   2.792504   7.121034
    38  H    5.177025   6.853306   5.096625   3.412603   7.424654
    39  H    5.661648   7.743665   6.042541   3.585419   8.069844
    40  H    4.053430   6.464736   5.175781   1.990989   6.473994
                   11         12         13         14         15
    11  C    0.000000
    12  H    2.007596   0.000000
    13  O    1.230194   2.397849   0.000000
    14  C    1.514433   3.363120   2.407632   0.000000
    15  H    2.200117   3.663649   3.284124   1.096518   0.000000
    16  H    2.137047   3.813215   2.901553   1.101895   1.775052
    17  H    2.128532   4.109771   2.569321   1.096147   1.801903
    18  N    6.613884   6.207461   7.793084   6.410901   5.547426
    19  H    6.979464   6.659886   8.161354   6.713437   5.761339
    20  H    3.667052   2.831264   4.500245   4.205326   4.174622
    21  C    7.760719   7.129247   8.901699   7.661569   6.874268
    22  C    9.020442   8.462771  10.185141   8.823221   7.938417
    23  C    7.893983   6.880210   8.932517   8.088437   7.414364
    24  C    9.310164   8.638795  10.435488   9.219713   8.300817
    25  H    9.134678   8.815589  10.336706   8.754303   7.816837
    26  H    9.887986   9.242602  11.037131   9.726931   8.882957
    27  C    8.182729   7.055226   9.176671   8.479239   7.761182
    28  H    7.137833   6.015589   8.122076   7.453166   6.892744
    29  H    8.846822   7.778423   9.863117   9.052518   8.410492
    30  C    9.399416   8.416489  10.439357   9.553285   8.732078
    31  H    8.687213   8.136202   9.812147   8.552132   7.592690
    32  H   10.327184   9.709008  11.461888  10.174248   9.219612
    33  H    7.354469   6.286769   8.344513   7.660078   6.923535
    34  H    8.529126   7.181590   9.430422   8.998302   8.369868
    35  H   10.257819   9.206496  11.290268  10.429831   9.636523
    36  H    9.759281   8.732569  10.754627   9.972317   9.143218
    37  C    8.072667   7.579056   9.207893   7.865464   7.164755
    38  H    8.235151   8.002808   9.409470   7.824379   7.068172
    39  H    9.065506   8.456049  10.172897   8.915339   8.243119
    40  H    7.413156   6.892000   8.502297   7.277811   6.694918
                   16         17         18         19         20
    16  H    0.000000
    17  H    1.776959   0.000000
    18  N    6.546075   7.338236   0.000000
    19  H    6.969245   7.552411   1.018809   0.000000
    20  H    4.046483   5.276948   4.620473   5.413234   0.000000
    21  C    7.695041   8.641982   1.480490   2.093288   5.197669
    22  C    8.918926   9.736700   2.421626   2.390624   6.704680
    23  C    8.181324   9.105784   2.517887   3.086034   5.059148
    24  C    9.488214  10.075810   3.038169   2.601439   7.304555
    25  H    8.816412   9.613902   2.608182   2.422533   7.061464
    26  H    9.753267  10.673178   3.364024   3.473871   7.299806
    27  C    8.760159   9.427579   3.082102   3.220609   5.794641
    28  H    7.506708   8.501957   2.773584   3.530002   4.098824
    29  H    9.071496  10.090297   3.441449   4.001307   5.783926
    30  C    9.857898  10.453037   3.654351   3.460493   7.180229
    31  H    8.911947   9.343303   2.791526   2.052478   7.085993
    32  H   10.448347  10.995498   4.015902   3.486566   8.389275
    33  H    8.041685   8.561670   2.789079   2.791541   5.365594
    34  H    9.294103   9.955186   4.076429   4.279516   6.045491
    35  H   10.663443  11.365895   4.382522   4.319448   7.767169
    36  H   10.381174  10.816818   4.423259   4.063395   7.816849
    37  C    7.681101   8.875384   2.478422   3.262108   5.220889
    38  H    7.594664   8.777826   2.694148   3.319604   5.694816
    39  H    8.701814   9.938895   3.430153   4.121687   6.019107
    40  H    7.007119   8.323574   2.804620   3.757280   4.349426
                   21         22         23         24         25
    21  C    0.000000
    22  C    1.548118   0.000000
    23  C    1.548559   2.515380   0.000000
    24  C    2.587775   1.534301   2.958004   0.000000
    25  H    2.170661   1.103741   3.472235   2.187058   0.000000
    26  H    2.150063   1.103081   2.779502   2.160237   1.769124
    27  C    2.567567   2.941194   1.531384   2.524969   3.945692
    28  H    2.182866   3.477869   1.100424   3.965978   4.318042
    29  H    2.157146   2.781676   1.104470   3.349970   3.782763
    30  C    3.015796   2.532488   2.531582   1.531245   3.495608
    31  H    2.914550   2.185766   3.412686   1.106266   2.513348
    32  H    3.525618   2.166038   3.948033   1.102304   2.518538
    33  H    2.846896   3.352098   2.163785   2.814134   4.178861
    34  H    3.513395   3.944651   2.165700   3.483222   4.990999
    35  H    3.417498   2.819356   2.805837   2.161242   3.827806
    36  H    4.019067   3.489125   3.490509   2.174543   4.335746
    37  C    1.537361   2.498211   2.541041   3.898834   2.736866
    38  H    2.175622   2.736181   3.497586   4.211238   2.511957
    39  H    2.176758   2.724104   2.782844   4.128541   3.088861
    40  H    2.201249   3.480605   2.816355   4.760541   3.754113
                   26         27         28         29         30
    26  H    0.000000
    27  C    3.349448   0.000000
    28  H    3.782436   2.170673   0.000000
    29  H    2.589444   2.167932   1.767392   0.000000
    30  C    2.811483   1.531605   3.485016   2.802030   0.000000
    31  H    3.084246   2.828787   4.252741   4.069054   2.160745
    32  H    2.465355   3.485391   4.998919   4.153497   2.179191
    33  H    4.030011   1.104531   2.488278   3.077161   2.169241
    34  H    4.175896   1.101926   2.488820   2.491214   2.175234
    35  H    2.648436   2.162539   3.799912   2.623383   1.105544
    36  H    3.818395   2.178717   4.326116   3.810077   1.102116
    37  C    2.625362   3.913933   2.820501   2.678959   4.375493
    38  H    2.955774   4.728994   3.817905   3.701321   5.004635
    39  H    2.380047   4.165053   3.189524   2.460344   4.463559
    40  H    3.654320   4.281536   2.652064   3.021053   5.050089
                   31         32         33         34         35
    31  H    0.000000
    32  H    1.759556   0.000000
    33  H    2.669377   3.829072   0.000000
    34  H    3.827398   4.327198   1.766430   0.000000
    35  H    3.068429   2.476506   3.076864   2.484460   0.000000
    36  H    2.462989   2.531059   2.495775   2.520832   1.771089
    37  C    4.319285   4.657881   4.284555   4.699271   4.521841
    38  H    4.516205   4.839691   4.980607   5.616849   5.210827
    39  H    4.784389   4.743438   4.775087   4.821936   4.335212
    40  H    5.079500   5.616357   4.553591   4.931675   5.237801
                   36         37         38         39         40
    36  H    0.000000
    37  C    5.438230   0.000000
    38  H    6.029482   1.099972   0.000000
    39  H    5.564419   1.100973   1.789185   0.000000
    40  H    6.083351   1.098256   1.777227   1.776233   0.000000
 Stoichiometry    C15H22N2O
 Framework group  C1[X(C15H22N2O)]
 Deg. of freedom   114
 Full point group                 C1      NOp   1
 Largest Abelian subgroup         C1      NOp   1
 Largest concise Abelian subgroup C1      NOp   1
                         Standard orientation:                         
 ---------------------------------------------------------------------
 Center     Atomic      Atomic             Coordinates (Angstroms)
 Number     Number       Type             X           Y           Z
 ---------------------------------------------------------------------
      1          6           0       -2.487591   -0.241204   -0.332965
      2          6           0       -1.908569   -0.930898    0.739572
      3          6           0       -0.589579   -0.699735    1.101405
      4          6           0        0.222165    0.216399    0.396531
      5          6           0       -0.365843    0.894952   -0.689223
      6          6           0       -1.695363    0.669155   -1.036066
      7          1           0       -2.503301   -1.667935    1.281008
      8          1           0       -0.158399   -1.247995    1.944052
      9          1           0        0.203577    1.629290   -1.252852
     10          7           0       -3.837570   -0.482981   -0.722823
     11          6           0       -5.005454   -0.167113   -0.055464
     12          1           0       -4.013309   -0.888520   -1.644697
     13          8           0       -6.098130   -0.452544   -0.543279
     14          6           0       -4.875317    0.579087    1.255931
     15          1           0       -3.944102    0.369334    1.795556
     16          1           0       -4.905087    1.660649    1.047342
     17          1           0       -5.743756    0.332095    1.877500
     18          7           0        1.520359    0.426812    0.841464
     19          1           0        1.781254   -0.233500    1.572145
     20          1           0       -2.136024    1.218866   -1.870044
     21          6           0        2.684023    0.877235    0.044687
     22          6           0        3.939687    0.525358    0.879049
     23          6           0        2.779599    0.155282   -1.321946
     24          6           0        4.208200   -0.979904    1.006196
     25          1           0        3.847257    0.995096    1.873557
     26          1           0        4.803327    1.001664    0.385039
     27          6           0        3.011691   -1.352284   -1.185874
     28          1           0        1.868447    0.345340   -1.908984
     29          1           0        3.615735    0.609832   -1.882407
     30          6           0        4.270317   -1.654392   -0.367091
     31          1           0        3.420660   -1.467808    1.610809
     32          1           0        5.148335   -1.138347    1.559474
     33          1           0        2.133002   -1.814264   -0.701653
     34          1           0        3.088765   -1.805861   -2.187156
     35          1           0        5.155717   -1.279824   -0.912977
     36          1           0        4.405931   -2.742108   -0.252445
     37          6           0        2.646792    2.402587   -0.143442
     38          1           0        2.584437    2.901913    0.834681
     39          1           0        3.559293    2.742617   -0.657117
     40          1           0        1.785212    2.725839   -0.742904
 ---------------------------------------------------------------------
 Rotational constants (GHZ):      1.1367139      0.1663414      0.1631270
 Leave Link  202 at Thu Feb 27 01:16:52 2020, MaxMem=   268435456 cpu:         1.0
 (Enter /opt/gaussian/g09/l301.exe)
 Standard basis: 6-31G(d) (5D, 7F)
 Ernie: Thresh=  0.10000D-02 Tol=  0.10000D-05 Strict=F.
 AO basis set in the form of general basis input (Overlap normalization):
      1 0
 S   6 1.00       0.000000000000
      0.3047524880D+04  0.1834737132D-02
      0.4573695180D+03  0.1403732281D-01
      0.1039486850D+03  0.6884262226D-01
      0.2921015530D+02  0.2321844432D+00
      0.9286662960D+01  0.4679413484D+00
      0.3163926960D+01  0.3623119853D+00
 SP   3 1.00       0.000000000000
      0.7868272350D+01 -0.1193324198D+00  0.6899906659D-01
      0.1881288540D+01 -0.1608541517D+00  0.3164239610D+00
      0.5442492580D+00  0.1143456438D+01  0.7443082909D+00
 SP   1 1.00       0.000000000000
      0.1687144782D+00  0.1000000000D+01  0.1000000000D+01
 D   1 1.00       0.000000000000
      0.8000000000D+00  0.1000000000D+01
 ****
      2 0
 S   6 1.00       0.000000000000
      0.3047524880D+04  0.1834737132D-02
      0.4573695180D+03  0.1403732281D-01
      0.1039486850D+03  0.6884262226D-01
      0.2921015530D+02  0.2321844432D+00
      0.9286662960D+01  0.4679413484D+00
      0.3163926960D+01  0.3623119853D+00
 SP   3 1.00       0.000000000000
      0.7868272350D+01 -0.1193324198D+00  0.6899906659D-01
      0.1881288540D+01 -0.1608541517D+00  0.3164239610D+00
      0.5442492580D+00  0.1143456438D+01  0.7443082909D+00
 SP   1 1.00       0.000000000000
      0.1687144782D+00  0.1000000000D+01  0.1000000000D+01
 D   1 1.00       0.000000000000
      0.8000000000D+00  0.1000000000D+01
 ****
      3 0
 S   6 1.00       0.000000000000
      0.3047524880D+04  0.1834737132D-02
      0.4573695180D+03  0.1403732281D-01
      0.1039486850D+03  0.6884262226D-01
      0.2921015530D+02  0.2321844432D+00
      0.9286662960D+01  0.4679413484D+00
      0.3163926960D+01  0.3623119853D+00
 SP   3 1.00       0.000000000000
      0.7868272350D+01 -0.1193324198D+00  0.6899906659D-01
      0.1881288540D+01 -0.1608541517D+00  0.3164239610D+00
      0.5442492580D+00  0.1143456438D+01  0.7443082909D+00
 SP   1 1.00       0.000000000000
      0.1687144782D+00  0.1000000000D+01  0.1000000000D+01
 D   1 1.00       0.000000000000
      0.8000000000D+00  0.1000000000D+01
 ****
      4 0
 S   6 1.00       0.000000000000
      0.3047524880D+04  0.1834737132D-02
      0.4573695180D+03  0.1403732281D-01
      0.1039486850D+03  0.6884262226D-01
      0.2921015530D+02  0.2321844432D+00
      0.9286662960D+01  0.4679413484D+00
      0.3163926960D+01  0.3623119853D+00
 SP   3 1.00       0.000000000000
      0.7868272350D+01 -0.1193324198D+00  0.6899906659D-01
      0.1881288540D+01 -0.1608541517D+00  0.3164239610D+00
      0.5442492580D+00  0.1143456438D+01  0.7443082909D+00
 SP   1 1.00       0.000000000000
      0.1687144782D+00  0.1000000000D+01  0.1000000000D+01
 D   1 1.00       0.000000000000
      0.8000000000D+00  0.1000000000D+01
 ****
      5 0
 S   6 1.00       0.000000000000
      0.3047524880D+04  0.1834737132D-02
      0.4573695180D+03  0.1403732281D-01
      0.1039486850D+03  0.6884262226D-01
      0.2921015530D+02  0.2321844432D+00
      0.9286662960D+01  0.4679413484D+00
      0.3163926960D+01  0.3623119853D+00
 SP   3 1.00       0.000000000000
      0.7868272350D+01 -0.1193324198D+00  0.6899906659D-01
      0.1881288540D+01 -0.1608541517D+00  0.3164239610D+00
      0.5442492580D+00  0.1143456438D+01  0.7443082909D+00
 SP   1 1.00       0.000000000000
      0.1687144782D+00  0.1000000000D+01  0.1000000000D+01
 D   1 1.00       0.000000000000
      0.8000000000D+00  0.1000000000D+01
 ****
      6 0
 S   6 1.00       0.000000000000
      0.3047524880D+04  0.1834737132D-02
      0.4573695180D+03  0.1403732281D-01
      0.1039486850D+03  0.6884262226D-01
      0.2921015530D+02  0.2321844432D+00
      0.9286662960D+01  0.4679413484D+00
      0.3163926960D+01  0.3623119853D+00
 SP   3 1.00       0.000000000000
      0.7868272350D+01 -0.1193324198D+00  0.6899906659D-01
      0.1881288540D+01 -0.1608541517D+00  0.3164239610D+00
      0.5442492580D+00  0.1143456438D+01  0.7443082909D+00
 SP   1 1.00       0.000000000000
      0.1687144782D+00  0.1000000000D+01  0.1000000000D+01
 D   1 1.00       0.000000000000
      0.8000000000D+00  0.1000000000D+01
 ****
      7 0
 S   3 1.00       0.000000000000
      0.1873113696D+02  0.3349460434D-01
      0.2825394365D+01  0.2347269535D+00
      0.6401216923D+00  0.8137573261D+00
 S   1 1.00       0.000000000000
      0.1612777588D+00  0.1000000000D+01
 ****
      8 0
 S   3 1.00       0.000000000000
      0.1873113696D+02  0.3349460434D-01
      0.2825394365D+01  0.2347269535D+00
      0.6401216923D+00  0.8137573261D+00
 S   1 1.00       0.000000000000
      0.1612777588D+00  0.1000000000D+01
 ****
      9 0
 S   3 1.00       0.000000000000
      0.1873113696D+02  0.3349460434D-01
      0.2825394365D+01  0.2347269535D+00
      0.6401216923D+00  0.8137573261D+00
 S   1 1.00       0.000000000000
      0.1612777588D+00  0.1000000000D+01
 ****
     10 0
 S   6 1.00       0.000000000000
      0.4173511460D+04  0.1834772160D-02
      0.6274579110D+03  0.1399462700D-01
      0.1429020930D+03  0.6858655181D-01
      0.4023432930D+02  0.2322408730D+00
      0.1282021290D+02  0.4690699481D+00
      0.4390437010D+01  0.3604551991D+00
 SP   3 1.00       0.000000000000
      0.1162636186D+02 -0.1149611817D+00  0.6757974388D-01
      0.2716279807D+01 -0.1691174786D+00  0.3239072959D+00
      0.7722183966D+00  0.1145851947D+01  0.7408951398D+00
 SP   1 1.00       0.000000000000
      0.2120314975D+00  0.1000000000D+01  0.1000000000D+01
 D   1 1.00       0.000000000000
      0.8000000000D+00  0.1000000000D+01
 ****
     11 0
 S   6 1.00       0.000000000000
      0.3047524880D+04  0.1834737132D-02
      0.4573695180D+03  0.1403732281D-01
      0.1039486850D+03  0.6884262226D-01
      0.2921015530D+02  0.2321844432D+00
      0.9286662960D+01  0.4679413484D+00
      0.3163926960D+01  0.3623119853D+00
 SP   3 1.00       0.000000000000
      0.7868272350D+01 -0.1193324198D+00  0.6899906659D-01
      0.1881288540D+01 -0.1608541517D+00  0.3164239610D+00
      0.5442492580D+00  0.1143456438D+01  0.7443082909D+00
 SP   1 1.00       0.000000000000
      0.1687144782D+00  0.1000000000D+01  0.1000000000D+01
 D   1 1.00       0.000000000000
      0.8000000000D+00  0.1000000000D+01
 ****
     12 0
 S   3 1.00       0.000000000000
      0.1873113696D+02  0.3349460434D-01
      0.2825394365D+01  0.2347269535D+00
      0.6401216923D+00  0.8137573261D+00
 S   1 1.00       0.000000000000
      0.1612777588D+00  0.1000000000D+01
 ****
     13 0
 S   6 1.00       0.000000000000
      0.5484671660D+04  0.1831074430D-02
      0.8252349460D+03  0.1395017220D-01
      0.1880469580D+03  0.6844507810D-01
      0.5296450000D+02  0.2327143360D+00
      0.1689757040D+02  0.4701928980D+00
      0.5799635340D+01  0.3585208530D+00
 SP   3 1.00       0.000000000000
      0.1553961625D+02 -0.1107775495D+00  0.7087426823D-01
      0.3599933586D+01 -0.1480262627D+00  0.3397528391D+00
      0.1013761750D+01  0.1130767015D+01  0.7271585773D+00
 SP   1 1.00       0.000000000000
      0.2700058226D+00  0.1000000000D+01  0.1000000000D+01
 D   1 1.00       0.000000000000
      0.8000000000D+00  0.1000000000D+01
 ****
     14 0
 S   6 1.00       0.000000000000
      0.3047524880D+04  0.1834737132D-02
      0.4573695180D+03  0.1403732281D-01
      0.1039486850D+03  0.6884262226D-01
      0.2921015530D+02  0.2321844432D+00
      0.9286662960D+01  0.4679413484D+00
      0.3163926960D+01  0.3623119853D+00
 SP   3 1.00       0.000000000000
      0.7868272350D+01 -0.1193324198D+00  0.6899906659D-01
      0.1881288540D+01 -0.1608541517D+00  0.3164239610D+00
      0.5442492580D+00  0.1143456438D+01  0.7443082909D+00
 SP   1 1.00       0.000000000000
      0.1687144782D+00  0.1000000000D+01  0.1000000000D+01
 D   1 1.00       0.000000000000
      0.8000000000D+00  0.1000000000D+01
 ****
     15 0
 S   3 1.00       0.000000000000
      0.1873113696D+02  0.3349460434D-01
      0.2825394365D+01  0.2347269535D+00
      0.6401216923D+00  0.8137573261D+00
 S   1 1.00       0.000000000000
      0.1612777588D+00  0.1000000000D+01
 ****
     16 0
 S   3 1.00       0.000000000000
      0.1873113696D+02  0.3349460434D-01
      0.2825394365D+01  0.2347269535D+00
      0.6401216923D+00  0.8137573261D+00
 S   1 1.00       0.000000000000
      0.1612777588D+00  0.1000000000D+01
 ****
     17 0
 S   3 1.00       0.000000000000
      0.1873113696D+02  0.3349460434D-01
      0.2825394365D+01  0.2347269535D+00
      0.6401216923D+00  0.8137573261D+00
 S   1 1.00       0.000000000000
      0.1612777588D+00  0.1000000000D+01
 ****
     18 0
 S   6 1.00       0.000000000000
      0.4173511460D+04  0.1834772160D-02
      0.6274579110D+03  0.1399462700D-01
      0.1429020930D+03  0.6858655181D-01
      0.4023432930D+02  0.2322408730D+00
      0.1282021290D+02  0.4690699481D+00
      0.4390437010D+01  0.3604551991D+00
 SP   3 1.00       0.000000000000
      0.1162636186D+02 -0.1149611817D+00  0.6757974388D-01
      0.2716279807D+01 -0.1691174786D+00  0.3239072959D+00
      0.7722183966D+00  0.1145851947D+01  0.7408951398D+00
 SP   1 1.00       0.000000000000
      0.2120314975D+00  0.1000000000D+01  0.1000000000D+01
 D   1 1.00       0.000000000000
      0.8000000000D+00  0.1000000000D+01
 ****
     19 0
 S   3 1.00       0.000000000000
      0.1873113696D+02  0.3349460434D-01
      0.2825394365D+01  0.2347269535D+00
      0.6401216923D+00  0.8137573261D+00
 S   1 1.00       0.000000000000
      0.1612777588D+00  0.1000000000D+01
 ****
     20 0
 S   3 1.00       0.000000000000
      0.1873113696D+02  0.3349460434D-01
      0.2825394365D+01  0.2347269535D+00
      0.6401216923D+00  0.8137573261D+00
 S   1 1.00       0.000000000000
      0.1612777588D+00  0.1000000000D+01
 ****
     21 0
 S   6 1.00       0.000000000000
      0.3047524880D+04  0.1834737132D-02
      0.4573695180D+03  0.1403732281D-01
      0.1039486850D+03  0.6884262226D-01
      0.2921015530D+02  0.2321844432D+00
      0.9286662960D+01  0.4679413484D+00
      0.3163926960D+01  0.3623119853D+00
 SP   3 1.00       0.000000000000
      0.7868272350D+01 -0.1193324198D+00  0.6899906659D-01
      0.1881288540D+01 -0.1608541517D+00  0.3164239610D+00
      0.5442492580D+00  0.1143456438D+01  0.7443082909D+00
 SP   1 1.00       0.000000000000
      0.1687144782D+00  0.1000000000D+01  0.1000000000D+01
 D   1 1.00       0.000000000000
      0.8000000000D+00  0.1000000000D+01
 ****
     22 0
 S   6 1.00       0.000000000000
      0.3047524880D+04  0.1834737132D-02
      0.4573695180D+03  0.1403732281D-01
      0.1039486850D+03  0.6884262226D-01
      0.2921015530D+02  0.2321844432D+00
      0.9286662960D+01  0.4679413484D+00
      0.3163926960D+01  0.3623119853D+00
 SP   3 1.00       0.000000000000
      0.7868272350D+01 -0.1193324198D+00  0.6899906659D-01
      0.1881288540D+01 -0.1608541517D+00  0.3164239610D+00
      0.5442492580D+00  0.1143456438D+01  0.7443082909D+00
 SP   1 1.00       0.000000000000
      0.1687144782D+00  0.1000000000D+01  0.1000000000D+01
 D   1 1.00       0.000000000000
      0.8000000000D+00  0.1000000000D+01
 ****
     23 0
 S   6 1.00       0.000000000000
      0.3047524880D+04  0.1834737132D-02
      0.4573695180D+03  0.1403732281D-01
      0.1039486850D+03  0.6884262226D-01
      0.2921015530D+02  0.2321844432D+00
      0.9286662960D+01  0.4679413484D+00
      0.3163926960D+01  0.3623119853D+00
 SP   3 1.00       0.000000000000
      0.7868272350D+01 -0.1193324198D+00  0.6899906659D-01
      0.1881288540D+01 -0.1608541517D+00  0.3164239610D+00
      0.5442492580D+00  0.1143456438D+01  0.7443082909D+00
 SP   1 1.00       0.000000000000
      0.1687144782D+00  0.1000000000D+01  0.1000000000D+01
 D   1 1.00       0.000000000000
      0.8000000000D+00  0.1000000000D+01
 ****
     24 0
 S   6 1.00       0.000000000000
      0.3047524880D+04  0.1834737132D-02
      0.4573695180D+03  0.1403732281D-01
      0.1039486850D+03  0.6884262226D-01
      0.2921015530D+02  0.2321844432D+00
      0.9286662960D+01  0.4679413484D+00
      0.3163926960D+01  0.3623119853D+00
 SP   3 1.00       0.000000000000
      0.7868272350D+01 -0.1193324198D+00  0.6899906659D-01
      0.1881288540D+01 -0.1608541517D+00  0.3164239610D+00
      0.5442492580D+00  0.1143456438D+01  0.7443082909D+00
 SP   1 1.00       0.000000000000
      0.1687144782D+00  0.1000000000D+01  0.1000000000D+01
 D   1 1.00       0.000000000000
      0.8000000000D+00  0.1000000000D+01
 ****
     25 0
 S   3 1.00       0.000000000000
      0.1873113696D+02  0.3349460434D-01
      0.2825394365D+01  0.2347269535D+00
      0.6401216923D+00  0.8137573261D+00
 S   1 1.00       0.000000000000
      0.1612777588D+00  0.1000000000D+01
 ****
     26 0
 S   3 1.00       0.000000000000
      0.1873113696D+02  0.3349460434D-01
      0.2825394365D+01  0.2347269535D+00
      0.6401216923D+00  0.8137573261D+00
 S   1 1.00       0.000000000000
      0.1612777588D+00  0.1000000000D+01
 ****
     27 0
 S   6 1.00       0.000000000000
      0.3047524880D+04  0.1834737132D-02
      0.4573695180D+03  0.1403732281D-01
      0.1039486850D+03  0.6884262226D-01
      0.2921015530D+02  0.2321844432D+00
      0.9286662960D+01  0.4679413484D+00
      0.3163926960D+01  0.3623119853D+00
 SP   3 1.00       0.000000000000
      0.7868272350D+01 -0.1193324198D+00  0.6899906659D-01
      0.1881288540D+01 -0.1608541517D+00  0.3164239610D+00
      0.5442492580D+00  0.1143456438D+01  0.7443082909D+00
 SP   1 1.00       0.000000000000
      0.1687144782D+00  0.1000000000D+01  0.1000000000D+01
 D   1 1.00       0.000000000000
      0.8000000000D+00  0.1000000000D+01
 ****
     28 0
 S   3 1.00       0.000000000000
      0.1873113696D+02  0.3349460434D-01
      0.2825394365D+01  0.2347269535D+00
      0.6401216923D+00  0.8137573261D+00
 S   1 1.00       0.000000000000
      0.1612777588D+00  0.1000000000D+01
 ****
     29 0
 S   3 1.00       0.000000000000
      0.1873113696D+02  0.3349460434D-01
      0.2825394365D+01  0.2347269535D+00
      0.6401216923D+00  0.8137573261D+00
 S   1 1.00       0.000000000000
      0.1612777588D+00  0.1000000000D+01
 ****
     30 0
 S   6 1.00       0.000000000000
      0.3047524880D+04  0.1834737132D-02
      0.4573695180D+03  0.1403732281D-01
      0.1039486850D+03  0.6884262226D-01
      0.2921015530D+02  0.2321844432D+00
      0.9286662960D+01  0.4679413484D+00
      0.3163926960D+01  0.3623119853D+00
 SP   3 1.00       0.000000000000
      0.7868272350D+01 -0.1193324198D+00  0.6899906659D-01
      0.1881288540D+01 -0.1608541517D+00  0.3164239610D+00
      0.5442492580D+00  0.1143456438D+01  0.7443082909D+00
 SP   1 1.00       0.000000000000
      0.1687144782D+00  0.1000000000D+01  0.1000000000D+01
 D   1 1.00       0.000000000000
      0.8000000000D+00  0.1000000000D+01
 ****
     31 0
 S   3 1.00       0.000000000000
      0.1873113696D+02  0.3349460434D-01
      0.2825394365D+01  0.2347269535D+00
      0.6401216923D+00  0.8137573261D+00
 S   1 1.00       0.000000000000
      0.1612777588D+00  0.1000000000D+01
 ****
     32 0
 S   3 1.00       0.000000000000
      0.1873113696D+02  0.3349460434D-01
      0.2825394365D+01  0.2347269535D+00
      0.6401216923D+00  0.8137573261D+00
 S   1 1.00       0.000000000000
      0.1612777588D+00  0.1000000000D+01
 ****
     33 0
 S   3 1.00       0.000000000000
      0.1873113696D+02  0.3349460434D-01
      0.2825394365D+01  0.2347269535D+00
      0.6401216923D+00  0.8137573261D+00
 S   1 1.00       0.000000000000
      0.1612777588D+00  0.1000000000D+01
 ****
     34 0
 S   3 1.00       0.000000000000
      0.1873113696D+02  0.3349460434D-01
      0.2825394365D+01  0.2347269535D+00
      0.6401216923D+00  0.8137573261D+00
 S   1 1.00       0.000000000000
      0.1612777588D+00  0.1000000000D+01
 ****
     35 0
 S   3 1.00       0.000000000000
      0.1873113696D+02  0.3349460434D-01
      0.2825394365D+01  0.2347269535D+00
      0.6401216923D+00  0.8137573261D+00
 S   1 1.00       0.000000000000
      0.1612777588D+00  0.1000000000D+01
 ****
     36 0
 S   3 1.00       0.000000000000
      0.1873113696D+02  0.3349460434D-01
      0.2825394365D+01  0.2347269535D+00
      0.6401216923D+00  0.8137573261D+00
 S   1 1.00       0.000000000000
      0.1612777588D+00  0.1000000000D+01
 ****
     37 0
 S   6 1.00       0.000000000000
      0.3047524880D+04  0.1834737132D-02
      0.4573695180D+03  0.1403732281D-01
      0.1039486850D+03  0.6884262226D-01
      0.2921015530D+02  0.2321844432D+00
      0.9286662960D+01  0.4679413484D+00
      0.3163926960D+01  0.3623119853D+00
 SP   3 1.00       0.000000000000
      0.7868272350D+01 -0.1193324198D+00  0.6899906659D-01
      0.1881288540D+01 -0.1608541517D+00  0.3164239610D+00
      0.5442492580D+00  0.1143456438D+01  0.7443082909D+00
 SP   1 1.00       0.000000000000
      0.1687144782D+00  0.1000000000D+01  0.1000000000D+01
 D   1 1.00       0.000000000000
      0.8000000000D+00  0.1000000000D+01
 ****
     38 0
 S   3 1.00       0.000000000000
      0.1873113696D+02  0.3349460434D-01
      0.2825394365D+01  0.2347269535D+00
      0.6401216923D+00  0.8137573261D+00
 S   1 1.00       0.000000000000
      0.1612777588D+00  0.1000000000D+01
 ****
     39 0
 S   3 1.00       0.000000000000
      0.1873113696D+02  0.3349460434D-01
      0.2825394365D+01  0.2347269535D+00
      0.6401216923D+00  0.8137573261D+00
 S   1 1.00       0.000000000000
      0.1612777588D+00  0.1000000000D+01
 ****
     40 0
 S   3 1.00       0.000000000000
      0.1873113696D+02  0.3349460434D-01
      0.2825394365D+01  0.2347269535D+00
      0.6401216923D+00  0.8137573261D+00
 S   1 1.00       0.000000000000
      0.1612777588D+00  0.1000000000D+01
 ****

 AO basis set (Overlap normalization):
 Atom C1       Shell     1 S   6     bf    1 -     1         -4.700865810438         -0.455809350069         -0.629211797717
      0.3047524880D+04  0.1834737132D-02
      0.4573695180D+03  0.1403732281D-01
      0.1039486850D+03  0.6884262226D-01
      0.2921015530D+02  0.2321844432D+00
      0.9286662960D+01  0.4679413484D+00
      0.3163926960D+01  0.3623119853D+00
 Atom C1       Shell     2 SP   3    bf    2 -     5         -4.700865810438         -0.455809350069         -0.629211797717
      0.7868272350D+01 -0.1193324198D+00  0.6899906659D-01
      0.1881288540D+01 -0.1608541517D+00  0.3164239610D+00
      0.5442492580D+00  0.1143456438D+01  0.7443082909D+00
 Atom C1       Shell     3 SP   1    bf    6 -     9         -4.700865810438         -0.455809350069         -0.629211797717
      0.1687144782D+00  0.1000000000D+01  0.1000000000D+01
 Atom C1       Shell     4 D   1     bf   10 -    14         -4.700865810438         -0.455809350069         -0.629211797717
      0.8000000000D+00  0.1000000000D+01
 Atom C2       Shell     5 S   6     bf   15 -    15         -3.606672260340         -1.759141938860          1.397589197165
      0.3047524880D+04  0.1834737132D-02
      0.4573695180D+03  0.1403732281D-01
      0.1039486850D+03  0.6884262226D-01
      0.2921015530D+02  0.2321844432D+00
      0.9286662960D+01  0.4679413484D+00
      0.3163926960D+01  0.3623119853D+00
 Atom C2       Shell     6 SP   3    bf   16 -    19         -3.606672260340         -1.759141938860          1.397589197165
      0.7868272350D+01 -0.1193324198D+00  0.6899906659D-01
      0.1881288540D+01 -0.1608541517D+00  0.3164239610D+00
      0.5442492580D+00  0.1143456438D+01  0.7443082909D+00
 Atom C2       Shell     7 SP   1    bf   20 -    23         -3.606672260340         -1.759141938860          1.397589197165
      0.1687144782D+00  0.1000000000D+01  0.1000000000D+01
 Atom C2       Shell     8 D   1     bf   24 -    28         -3.606672260340         -1.759141938860          1.397589197165
      0.8000000000D+00  0.1000000000D+01
 Atom C3       Shell     9 S   6     bf   29 -    29         -1.114143164831         -1.322307695654          2.081353608427
      0.3047524880D+04  0.1834737132D-02
      0.4573695180D+03  0.1403732281D-01
      0.1039486850D+03  0.6884262226D-01
      0.2921015530D+02  0.2321844432D+00
      0.9286662960D+01  0.4679413484D+00
      0.3163926960D+01  0.3623119853D+00
 Atom C3       Shell    10 SP   3    bf   30 -    33         -1.114143164831         -1.322307695654          2.081353608427
      0.7868272350D+01 -0.1193324198D+00  0.6899906659D-01
      0.1881288540D+01 -0.1608541517D+00  0.3164239610D+00
      0.5442492580D+00  0.1143456438D+01  0.7443082909D+00
 Atom C3       Shell    11 SP   1    bf   34 -    37         -1.114143164831         -1.322307695654          2.081353608427
      0.1687144782D+00  0.1000000000D+01  0.1000000000D+01
 Atom C3       Shell    12 D   1     bf   38 -    42         -1.114143164831         -1.322307695654          2.081353608427
      0.8000000000D+00  0.1000000000D+01
 Atom C4       Shell    13 S   6     bf   43 -    43          0.419831356961          0.408933984265          0.749335179914
      0.3047524880D+04  0.1834737132D-02
      0.4573695180D+03  0.1403732281D-01
      0.1039486850D+03  0.6884262226D-01
      0.2921015530D+02  0.2321844432D+00
      0.9286662960D+01  0.4679413484D+00
      0.3163926960D+01  0.3623119853D+00
 Atom C4       Shell    14 SP   3    bf   44 -    47          0.419831356961          0.408933984265          0.749335179914
      0.7868272350D+01 -0.1193324198D+00  0.6899906659D-01
      0.1881288540D+01 -0.1608541517D+00  0.3164239610D+00
      0.5442492580D+00  0.1143456438D+01  0.7443082909D+00
 Atom C4       Shell    15 SP   1    bf   48 -    51          0.419831356961          0.408933984265          0.749335179914
      0.1687144782D+00  0.1000000000D+01  0.1000000000D+01
 Atom C4       Shell    16 D   1     bf   52 -    56          0.419831356961          0.408933984265          0.749335179914
      0.8000000000D+00  0.1000000000D+01
 Atom C5       Shell    17 S   6     bf   57 -    57         -0.691343718208          1.691214685852         -1.302443038953
      0.3047524880D+04  0.1834737132D-02
      0.4573695180D+03  0.1403732281D-01
      0.1039486850D+03  0.6884262226D-01
      0.2921015530D+02  0.2321844432D+00
      0.9286662960D+01  0.4679413484D+00
      0.3163926960D+01  0.3623119853D+00
 Atom C5       Shell    18 SP   3    bf   58 -    61         -0.691343718208          1.691214685852         -1.302443038953
      0.7868272350D+01 -0.1193324198D+00  0.6899906659D-01
      0.1881288540D+01 -0.1608541517D+00  0.3164239610D+00
      0.5442492580D+00  0.1143456438D+01  0.7443082909D+00
 Atom C5       Shell    19 SP   1    bf   62 -    65         -0.691343718208          1.691214685852         -1.302443038953
      0.1687144782D+00  0.1000000000D+01  0.1000000000D+01
 Atom C5       Shell    20 D   1     bf   66 -    70         -0.691343718208          1.691214685852         -1.302443038953
      0.8000000000D+00  0.1000000000D+01
 Atom C6       Shell    21 S   6     bf   71 -    71         -3.203772081410          1.264520597443         -1.957880234383
      0.3047524880D+04  0.1834737132D-02
      0.4573695180D+03  0.1403732281D-01
      0.1039486850D+03  0.6884262226D-01
      0.2921015530D+02  0.2321844432D+00
      0.9286662960D+01  0.4679413484D+00
      0.3163926960D+01  0.3623119853D+00
 Atom C6       Shell    22 SP   3    bf   72 -    75         -3.203772081410          1.264520597443         -1.957880234383
      0.7868272350D+01 -0.1193324198D+00  0.6899906659D-01
      0.1881288540D+01 -0.1608541517D+00  0.3164239610D+00
      0.5442492580D+00  0.1143456438D+01  0.7443082909D+00
 Atom C6       Shell    23 SP   1    bf   76 -    79         -3.203772081410          1.264520597443         -1.957880234383
      0.1687144782D+00  0.1000000000D+01  0.1000000000D+01
 Atom C6       Shell    24 D   1     bf   80 -    84         -3.203772081410          1.264520597443         -1.957880234383
      0.8000000000D+00  0.1000000000D+01
 Atom H7       Shell    25 S   3     bf   85 -    85         -4.730553569075         -3.151941113531          2.420753920672
      0.1873113696D+02  0.3349460434D-01
      0.2825394365D+01  0.2347269535D+00
      0.6401216923D+00  0.8137573261D+00
 Atom H7       Shell    26 S   1     bf   86 -    86         -4.730553569075         -3.151941113531          2.420753920672
      0.1612777588D+00  0.1000000000D+01
 Atom H8       Shell    27 S   3     bf   87 -    87         -0.299331439150         -2.358368980904          3.673725061636
      0.1873113696D+02  0.3349460434D-01
      0.2825394365D+01  0.2347269535D+00
      0.6401216923D+00  0.8137573261D+00
 Atom H8       Shell    28 S   1     bf   88 -    88         -0.299331439150         -2.358368980904          3.673725061636
      0.1612777588D+00  0.1000000000D+01
 Atom H9       Shell    29 S   3     bf   89 -    89          0.384704267868          3.078911513473         -2.367547446060
      0.1873113696D+02  0.3349460434D-01
      0.2825394365D+01  0.2347269535D+00
      0.6401216923D+00  0.8137573261D+00
 Atom H9       Shell    30 S   1     bf   90 -    90          0.384704267868          3.078911513473         -2.367547446060
      0.1612777588D+00  0.1000000000D+01
 Atom N10      Shell    31 S   6     bf   91 -    91         -7.251955483475         -0.912701202994         -1.365938037383
      0.4173511460D+04  0.1834772160D-02
      0.6274579110D+03  0.1399462700D-01
      0.1429020930D+03  0.6858655181D-01
      0.4023432930D+02  0.2322408730D+00
      0.1282021290D+02  0.4690699481D+00
      0.4390437010D+01  0.3604551991D+00
 Atom N10      Shell    32 SP   3    bf   92 -    95         -7.251955483475         -0.912701202994         -1.365938037383
      0.1162636186D+02 -0.1149611817D+00  0.6757974388D-01
      0.2716279807D+01 -0.1691174786D+00  0.3239072959D+00
      0.7722183966D+00  0.1145851947D+01  0.7408951398D+00
 Atom N10      Shell    33 SP   1    bf   96 -    99         -7.251955483475         -0.912701202994         -1.365938037383
      0.2120314975D+00  0.1000000000D+01  0.1000000000D+01
 Atom N10      Shell    34 D   1     bf  100 -   104         -7.251955483475         -0.912701202994         -1.365938037383
      0.8000000000D+00  0.1000000000D+01
 Atom C11      Shell    35 S   6     bf  105 -   105         -9.458936653541         -0.315798651056         -0.104811272295
      0.3047524880D+04  0.1834737132D-02
      0.4573695180D+03  0.1403732281D-01
      0.1039486850D+03  0.6884262226D-01
      0.2921015530D+02  0.2321844432D+00
      0.9286662960D+01  0.4679413484D+00
      0.3163926960D+01  0.3623119853D+00
 Atom C11      Shell    36 SP   3    bf  106 -   109         -9.458936653541         -0.315798651056         -0.104811272295
      0.7868272350D+01 -0.1193324198D+00  0.6899906659D-01
      0.1881288540D+01 -0.1608541517D+00  0.3164239610D+00
      0.5442492580D+00  0.1143456438D+01  0.7443082909D+00
 Atom C11      Shell    37 SP   1    bf  110 -   113         -9.458936653541         -0.315798651056         -0.104811272295
      0.1687144782D+00  0.1000000000D+01  0.1000000000D+01
 Atom C11      Shell    38 D   1     bf  114 -   118         -9.458936653541         -0.315798651056         -0.104811272295
      0.8000000000D+00  0.1000000000D+01
 Atom H12      Shell    39 S   3     bf  119 -   119         -7.584054224170         -1.679060308393         -3.108026518620
      0.1873113696D+02  0.3349460434D-01
      0.2825394365D+01  0.2347269535D+00
      0.6401216923D+00  0.8137573261D+00
 Atom H12      Shell    40 S   1     bf  120 -   120         -7.584054224170         -1.679060308393         -3.108026518620
      0.1612777588D+00  0.1000000000D+01
 Atom O13      Shell    41 S   6     bf  121 -   121        -11.523796147464         -0.855183446121         -1.026648708533
      0.5484671660D+04  0.1831074430D-02
      0.8252349460D+03  0.1395017220D-01
      0.1880469580D+03  0.6844507810D-01
      0.5296450000D+02  0.2327143360D+00
      0.1689757040D+02  0.4701928980D+00
      0.5799635340D+01  0.3585208530D+00
 Atom O13      Shell    42 SP   3    bf  122 -   125        -11.523796147464         -0.855183446121         -1.026648708533
      0.1553961625D+02 -0.1107775495D+00  0.7087426823D-01
      0.3599933586D+01 -0.1480262627D+00  0.3397528391D+00
      0.1013761750D+01  0.1130767015D+01  0.7271585773D+00
 Atom O13      Shell    43 SP   1    bf  126 -   129        -11.523796147464         -0.855183446121         -1.026648708533
      0.2700058226D+00  0.1000000000D+01  0.1000000000D+01
 Atom O13      Shell    44 D   1     bf  130 -   134        -11.523796147464         -0.855183446121         -1.026648708533
      0.8000000000D+00  0.1000000000D+01
 Atom C14      Shell    45 S   6     bf  135 -   135         -9.213014812706          1.094315249956          2.373366273135
      0.3047524880D+04  0.1834737132D-02
      0.4573695180D+03  0.1403732281D-01
      0.1039486850D+03  0.6884262226D-01
      0.2921015530D+02  0.2321844432D+00
      0.9286662960D+01  0.4679413484D+00
      0.3163926960D+01  0.3623119853D+00
 Atom C14      Shell    46 SP   3    bf  136 -   139         -9.213014812706          1.094315249956          2.373366273135
      0.7868272350D+01 -0.1193324198D+00  0.6899906659D-01
      0.1881288540D+01 -0.1608541517D+00  0.3164239610D+00
      0.5442492580D+00  0.1143456438D+01  0.7443082909D+00
 Atom C14      Shell    47 SP   1    bf  140 -   143         -9.213014812706          1.094315249956          2.373366273135
      0.1687144782D+00  0.1000000000D+01  0.1000000000D+01
 Atom C14      Shell    48 D   1     bf  144 -   148         -9.213014812706          1.094315249956          2.373366273135
      0.8000000000D+00  0.1000000000D+01
 Atom H15      Shell    49 S   3     bf  149 -   149         -7.453272978564          0.697940460977          3.393108327109
      0.1873113696D+02  0.3349460434D-01
      0.2825394365D+01  0.2347269535D+00
      0.6401216923D+00  0.8137573261D+00
 Atom H15      Shell    50 S   1     bf  150 -   150         -7.453272978564          0.697940460977          3.393108327109
      0.1612777588D+00  0.1000000000D+01
 Atom H16      Shell    51 S   3     bf  151 -   151         -9.269271001852          3.138172154377          1.979189475127
      0.1873113696D+02  0.3349460434D-01
      0.2825394365D+01  0.2347269535D+00
      0.6401216923D+00  0.8137573261D+00
 Atom H16      Shell    52 S   1     bf  152 -   152         -9.269271001852          3.138172154377          1.979189475127
      0.1612777588D+00  0.1000000000D+01
 Atom H17      Shell    53 S   3     bf  153 -   153        -10.854126187792          0.627569130403          3.547960117911
      0.1873113696D+02  0.3349460434D-01
      0.2825394365D+01  0.2347269535D+00
      0.6401216923D+00  0.8137573261D+00
 Atom H17      Shell    54 S   1     bf  154 -   154        -10.854126187792          0.627569130403          3.547960117911
      0.1612777588D+00  0.1000000000D+01
 Atom N18      Shell    55 S   6     bf  155 -   155          2.873062624096          0.806558016774          1.590137235766
      0.4173511460D+04  0.1834772160D-02
      0.6274579110D+03  0.1399462700D-01
      0.1429020930D+03  0.6858655181D-01
      0.4023432930D+02  0.2322408730D+00
      0.1282021290D+02  0.4690699481D+00
      0.4390437010D+01  0.3604551991D+00
 Atom N18      Shell    56 SP   3    bf  156 -   159          2.873062624096          0.806558016774          1.590137235766
      0.1162636186D+02 -0.1149611817D+00  0.6757974388D-01
      0.2716279807D+01 -0.1691174786D+00  0.3239072959D+00
      0.7722183966D+00  0.1145851947D+01  0.7408951398D+00
 Atom N18      Shell    57 SP   1    bf  160 -   163          2.873062624096          0.806558016774          1.590137235766
      0.2120314975D+00  0.1000000000D+01  0.1000000000D+01
 Atom N18      Shell    58 D   1     bf  164 -   168          2.873062624096          0.806558016774          1.590137235766
      0.8000000000D+00  0.1000000000D+01
 Atom H19      Shell    59 S   3     bf  169 -   169          3.366082164026         -0.441250398677          2.970924393255
      0.1873113696D+02  0.3349460434D-01
      0.2825394365D+01  0.2347269535D+00
      0.6401216923D+00  0.8137573261D+00
 Atom H19      Shell    60 S   1     bf  170 -   170          3.366082164026         -0.441250398677          2.970924393255
      0.1612777588D+00  0.1000000000D+01
 Atom H20      Shell    61 S   3     bf  171 -   171         -4.036500524406          2.303322914227         -3.533871410836
      0.1873113696D+02  0.3349460434D-01
      0.2825394365D+01  0.2347269535D+00
      0.6401216923D+00  0.8137573261D+00
 Atom H20      Shell    62 S   1     bf  172 -   172         -4.036500524406          2.303322914227         -3.533871410836
      0.1612777588D+00  0.1000000000D+01
 Atom C21      Shell    63 S   6     bf  173 -   173          5.072069157991          1.657734444748          0.084445638960
      0.3047524880D+04  0.1834737132D-02
      0.4573695180D+03  0.1403732281D-01
      0.1039486850D+03  0.6884262226D-01
      0.2921015530D+02  0.2321844432D+00
      0.9286662960D+01  0.4679413484D+00
      0.3163926960D+01  0.3623119853D+00
 Atom C21      Shell    64 SP   3    bf  174 -   177          5.072069157991          1.657734444748          0.084445638960
      0.7868272350D+01 -0.1193324198D+00  0.6899906659D-01
      0.1881288540D+01 -0.1608541517D+00  0.3164239610D+00
      0.5442492580D+00  0.1143456438D+01  0.7443082909D+00
 Atom C21      Shell    65 SP   1    bf  178 -   181          5.072069157991          1.657734444748          0.084445638960
      0.1687144782D+00  0.1000000000D+01  0.1000000000D+01
 Atom C21      Shell    66 D   1     bf  182 -   186          5.072069157991          1.657734444748          0.084445638960
      0.8000000000D+00  0.1000000000D+01
 Atom C22      Shell    67 S   6     bf  187 -   187          7.444929997786          0.992783051951          1.661162700534
      0.3047524880D+04  0.1834737132D-02
      0.4573695180D+03  0.1403732281D-01
      0.1039486850D+03  0.6884262226D-01
      0.2921015530D+02  0.2321844432D+00
      0.9286662960D+01  0.4679413484D+00
      0.3163926960D+01  0.3623119853D+00
 Atom C22      Shell    68 SP   3    bf  188 -   191          7.444929997786          0.992783051951          1.661162700534
      0.7868272350D+01 -0.1193324198D+00  0.6899906659D-01
      0.1881288540D+01 -0.1608541517D+00  0.3164239610D+00
      0.5442492580D+00  0.1143456438D+01  0.7443082909D+00
 Atom C22      Shell    69 SP   1    bf  192 -   195          7.444929997786          0.992783051951          1.661162700534
      0.1687144782D+00  0.1000000000D+01  0.1000000000D+01
 Atom C22      Shell    70 D   1     bf  196 -   200          7.444929997786          0.992783051951          1.661162700534
      0.8000000000D+00  0.1000000000D+01
 Atom C23      Shell    71 S   6     bf  201 -   201          5.252681790731          0.293440619836         -2.498115045252
      0.3047524880D+04  0.1834737132D-02
      0.4573695180D+03  0.1403732281D-01
      0.1039486850D+03  0.6884262226D-01
      0.2921015530D+02  0.2321844432D+00
      0.9286662960D+01  0.4679413484D+00
      0.3163926960D+01  0.3623119853D+00
 Atom C23      Shell    72 SP   3    bf  202 -   205          5.252681790731          0.293440619836         -2.498115045252
      0.7868272350D+01 -0.1193324198D+00  0.6899906659D-01
      0.1881288540D+01 -0.1608541517D+00  0.3164239610D+00
      0.5442492580D+00  0.1143456438D+01  0.7443082909D+00
 Atom C23      Shell    73 SP   1    bf  206 -   209          5.252681790731          0.293440619836         -2.498115045252
      0.1687144782D+00  0.1000000000D+01  0.1000000000D+01
 Atom C23      Shell    74 D   1     bf  210 -   214          5.252681790731          0.293440619836         -2.498115045252
      0.8000000000D+00  0.1000000000D+01
 Atom C24      Shell    75 S   6     bf  215 -   215          7.952344901255         -1.851749916941          1.901434918203
      0.3047524880D+04  0.1834737132D-02
      0.4573695180D+03  0.1403732281D-01
      0.1039486850D+03  0.6884262226D-01
      0.2921015530D+02  0.2321844432D+00
      0.9286662960D+01  0.4679413484D+00
      0.3163926960D+01  0.3623119853D+00
 Atom C24      Shell    76 SP   3    bf  216 -   219          7.952344901255         -1.851749916941          1.901434918203
      0.7868272350D+01 -0.1193324198D+00  0.6899906659D-01
      0.1881288540D+01 -0.1608541517D+00  0.3164239610D+00
      0.5442492580D+00  0.1143456438D+01  0.7443082909D+00
 Atom C24      Shell    77 SP   1    bf  220 -   223          7.952344901255         -1.851749916941          1.901434918203
      0.1687144782D+00  0.1000000000D+01  0.1000000000D+01
 Atom C24      Shell    78 D   1     bf  224 -   228          7.952344901255         -1.851749916941          1.901434918203
      0.8000000000D+00  0.1000000000D+01
 Atom H25      Shell    79 S   3     bf  229 -   229          7.270261634727          1.880459311783          3.540510332868
      0.1873113696D+02  0.3349460434D-01
      0.2825394365D+01  0.2347269535D+00
      0.6401216923D+00  0.8137573261D+00
 Atom H25      Shell    80 S   1     bf  230 -   230          7.270261634727          1.880459311783          3.540510332868
      0.1612777588D+00  0.1000000000D+01
 Atom H26      Shell    81 S   3     bf  231 -   231          9.076972961580          1.892871108538          0.727618559735
      0.1873113696D+02  0.3349460434D-01
      0.2825394365D+01  0.2347269535D+00
      0.6401216923D+00  0.8137573261D+00
 Atom H26      Shell    82 S   1     bf  232 -   232          9.076972961580          1.892871108538          0.727618559735
      0.1612777588D+00  0.1000000000D+01
 Atom C27      Shell    83 S   6     bf  233 -   233          5.691270383462         -2.555446107388         -2.240976321001
      0.3047524880D+04  0.1834737132D-02
      0.4573695180D+03  0.1403732281D-01
      0.1039486850D+03  0.6884262226D-01
      0.2921015530D+02  0.2321844432D+00
      0.9286662960D+01  0.4679413484D+00
      0.3163926960D+01  0.3623119853D+00
 Atom C27      Shell    84 SP   3    bf  234 -   237          5.691270383462         -2.555446107388         -2.240976321001
      0.7868272350D+01 -0.1193324198D+00  0.6899906659D-01
      0.1881288540D+01 -0.1608541517D+00  0.3164239610D+00
      0.5442492580D+00  0.1143456438D+01  0.7443082909D+00
 Atom C27      Shell    85 SP   1    bf  238 -   241          5.691270383462         -2.555446107388         -2.240976321001
      0.1687144782D+00  0.1000000000D+01  0.1000000000D+01
 Atom C27      Shell    86 D   1     bf  242 -   246          5.691270383462         -2.555446107388         -2.240976321001
      0.8000000000D+00  0.1000000000D+01
 Atom H28      Shell    87 S   3     bf  247 -   247          3.530853634983          0.652598587593         -3.607456024245
      0.1873113696D+02  0.3349460434D-01
      0.2825394365D+01  0.2347269535D+00
      0.6401216923D+00  0.8137573261D+00
 Atom H28      Shell    88 S   1     bf  248 -   248          3.530853634983          0.652598587593         -3.607456024245
      0.1612777588D+00  0.1000000000D+01
 Atom H29      Shell    89 S   3     bf  249 -   249          6.832748398536          1.152416092710         -3.557233006974
      0.1873113696D+02  0.3349460434D-01
      0.2825394365D+01  0.2347269535D+00
      0.6401216923D+00  0.8137573261D+00
 Atom H29      Shell    90 S   1     bf  250 -   250          6.832748398536          1.152416092710         -3.557233006974
      0.1612777588D+00  0.1000000000D+01
 Atom C30      Shell    91 S   6     bf  251 -   251          8.069729131422         -3.126347993235         -0.693702171750
      0.3047524880D+04  0.1834737132D-02
      0.4573695180D+03  0.1403732281D-01
      0.1039486850D+03  0.6884262226D-01
      0.2921015530D+02  0.2321844432D+00
      0.9286662960D+01  0.4679413484D+00
      0.3163926960D+01  0.3623119853D+00
 Atom C30      Shell    92 SP   3    bf  252 -   255          8.069729131422         -3.126347993235         -0.693702171750
      0.7868272350D+01 -0.1193324198D+00  0.6899906659D-01
      0.1881288540D+01 -0.1608541517D+00  0.3164239610D+00
      0.5442492580D+00  0.1143456438D+01  0.7443082909D+00
 Atom C30      Shell    93 SP   1    bf  256 -   259          8.069729131422         -3.126347993235         -0.693702171750
      0.1687144782D+00  0.1000000000D+01  0.1000000000D+01
 Atom C30      Shell    94 D   1     bf  260 -   264          8.069729131422         -3.126347993235         -0.693702171750
      0.8000000000D+00  0.1000000000D+01
 Atom H31      Shell    95 S   3     bf  265 -   265          6.464110945989         -2.773754758552          3.043987646132
      0.1873113696D+02  0.3349460434D-01
      0.2825394365D+01  0.2347269535D+00
      0.6401216923D+00  0.8137573261D+00
 Atom H31      Shell    96 S   1     bf  266 -   266          6.464110945989         -2.773754758552          3.043987646132
      0.1612777588D+00  0.1000000000D+01
 Atom H32      Shell    97 S   3     bf  267 -   267          9.728942618947         -2.151164782111          2.946978676849
      0.1873113696D+02  0.3349460434D-01
      0.2825394365D+01  0.2347269535D+00
      0.6401216923D+00  0.8137573261D+00
 Atom H32      Shell    98 S   1     bf  268 -   268          9.728942618947         -2.151164782111          2.946978676849
      0.1612777588D+00  0.1000000000D+01
 Atom H33      Shell    99 S   3     bf  269 -   269          4.030789184714         -3.428462129086         -1.325931122656
      0.1873113696D+02  0.3349460434D-01
      0.2825394365D+01  0.2347269535D+00
      0.6401216923D+00  0.8137573261D+00
 Atom H33      Shell   100 S   1     bf  270 -   270          4.030789184714         -3.428462129086         -1.325931122656
      0.1612777588D+00  0.1000000000D+01
 Atom H34      Shell   101 S   3     bf  271 -   271          5.836920491689         -3.412583353788         -4.133126167750
      0.1873113696D+02  0.3349460434D-01
      0.2825394365D+01  0.2347269535D+00
      0.6401216923D+00  0.8137573261D+00
 Atom H34      Shell   102 S   1     bf  272 -   272          5.836920491689         -3.412583353788         -4.133126167750
      0.1612777588D+00  0.1000000000D+01
 Atom H35      Shell   103 S   3     bf  273 -   273          9.742893806072         -2.418516148941         -1.725275832227
      0.1873113696D+02  0.3349460434D-01
      0.2825394365D+01  0.2347269535D+00
      0.6401216923D+00  0.8137573261D+00
 Atom H35      Shell   104 S   1     bf  274 -   274          9.742893806072         -2.418516148941         -1.725275832227
      0.1612777588D+00  0.1000000000D+01
 Atom H36      Shell   105 S   3     bf  275 -   275          8.326003838790         -5.181832592384         -0.477051060849
      0.1873113696D+02  0.3349460434D-01
      0.2825394365D+01  0.2347269535D+00
      0.6401216923D+00  0.8137573261D+00
 Atom H36      Shell   106 S   1     bf  276 -   276          8.326003838790         -5.181832592384         -0.477051060849
      0.1612777588D+00  0.1000000000D+01
 Atom C37      Shell   107 S   6     bf  277 -   277          5.001711180321          4.540232173173         -0.271065268733
      0.3047524880D+04  0.1834737132D-02
      0.4573695180D+03  0.1403732281D-01
      0.1039486850D+03  0.6884262226D-01
      0.2921015530D+02  0.2321844432D+00
      0.9286662960D+01  0.4679413484D+00
      0.3163926960D+01  0.3623119853D+00
 Atom C37      Shell   108 SP   3    bf  278 -   281          5.001711180321          4.540232173173         -0.271065268733
      0.7868272350D+01 -0.1193324198D+00  0.6899906659D-01
      0.1881288540D+01 -0.1608541517D+00  0.3164239610D+00
      0.5442492580D+00  0.1143456438D+01  0.7443082909D+00
 Atom C37      Shell   109 SP   1    bf  282 -   285          5.001711180321          4.540232173173         -0.271065268733
      0.1687144782D+00  0.1000000000D+01  0.1000000000D+01
 Atom C37      Shell   110 D   1     bf  286 -   290          5.001711180321          4.540232173173         -0.271065268733
      0.8000000000D+00  0.1000000000D+01
 Atom H38      Shell   111 S   3     bf  291 -   291          4.883877204746          5.483821211104          1.577318596857
      0.1873113696D+02  0.3349460434D-01
      0.2825394365D+01  0.2347269535D+00
      0.6401216923D+00  0.8137573261D+00
 Atom H38      Shell   112 S   1     bf  292 -   292          4.883877204746          5.483821211104          1.577318596857
      0.1612777588D+00  0.1000000000D+01
 Atom H39      Shell   113 S   3     bf  293 -   293          6.726089668702          5.182794557686         -1.241770374306
      0.1873113696D+02  0.3349460434D-01
      0.2825394365D+01  0.2347269535D+00
      0.6401216923D+00  0.8137573261D+00
 Atom H39      Shell   114 S   1     bf  294 -   294          6.726089668702          5.182794557686         -1.241770374306
      0.1612777588D+00  0.1000000000D+01
 Atom H40      Shell   115 S   3     bf  295 -   295          3.373561908296          5.151088471881         -1.403885061578
      0.1873113696D+02  0.3349460434D-01
      0.2825394365D+01  0.2347269535D+00
      0.6401216923D+00  0.8137573261D+00
 Atom H40      Shell   116 S   1     bf  296 -   296          3.373561908296          5.151088471881         -1.403885061578
      0.1612777588D+00  0.1000000000D+01
 There are   314 symmetry adapted cartesian basis functions of A   symmetry.
 There are   296 symmetry adapted basis functions of A   symmetry.
   296 basis functions,   592 primitive gaussians,   314 cartesian basis functions
    67 alpha electrons       67 beta electrons
       nuclear repulsion energy      1313.5496442194 Hartrees.
 IExCor=  608 DFT=T Ex=PW91 Corr=PW91 ExCW=0 ScaHFX=  0.000000
 ScaDFX=  1.000000  1.000000  1.000000  1.000000 ScalE2=  1.000000  1.000000
 IRadAn=      0 IRanWt=     -1 IRanGd=            0 ICorTp=0 IEmpDi=  4
 NAtoms=   40 NActive=   40 NUniq=   40 SFac= 1.00D+00 NAtFMM=   60 NAOKFM=F Big=F
 Integral buffers will be    131072 words long.
 Regular integral format.
 Two-electron integral symmetry is turned on.
 Leave Link  301 at Thu Feb 27 01:16:52 2020, MaxMem=   268435456 cpu:         1.8
 (Enter /opt/gaussian/g09/l302.exe)
 NPDir=0 NMtPBC=     1 NCelOv=     1 NCel=       1 NClECP=     1 NCelD=      1
         NCelK=      1 NCelE2=     1 NClLst=     1 CellRange=     0.0.
 One-electron integrals computed using PRISM.
 NBasis=   296 RedAO= T EigKep=  3.98D-04  NBF=   296
 NBsUse=   296 1.00D-06 EigRej= -1.00D+00 NBFU=   296
 Precomputing XC quadrature grid using
 IXCGrd= 4 IRadAn=           0 IRanWt=          -1 IRanGd=           0 AccXCQ= 0.00D+00.
 Generated NRdTot=       0 NPtTot=           0 NUsed=           0 NTot=          32
 NSgBfM=   311   311   312   312   312 MxSgAt=    40 MxSgA2=    40.
 Leave Link  302 at Thu Feb 27 01:16:54 2020, MaxMem=   268435456 cpu:        38.6
 (Enter /opt/gaussian/g09/l308.exe)
 Leave Link  308 at Thu Feb 27 01:16:55 2020, MaxMem=   268435456 cpu:         4.9
 (Enter /opt/gaussian/g09/l303.exe)
 DipDrv:  MaxL=1.
 Leave Link  303 at Thu Feb 27 01:16:55 2020, MaxMem=   268435456 cpu:         3.5
 (Enter /opt/gaussian/g09/l401.exe)
 ExpMin= 1.61D-01 ExpMax= 5.48D+03 ExpMxC= 8.25D+02 IAcc=1 IRadAn=         1 AccDes= 0.00D+00
 Harris functional with IExCor=  608 and IRadAn=       1 diagonalized for initial guess.
 HarFok:  IExCor=  608 AccDes= 0.00D+00 IRadAn=         1 IDoV= 1 UseB2=F ITyADJ=14
 ICtDFT=  3500011 ScaDFX=  1.000000  1.000000  1.000000  1.000000
 FoFCou: FMM=F IPFlag=           0 FMFlag=      100000 FMFlg1=           0
         NFxFlg=           0 DoJE=T BraDBF=F KetDBF=T FulRan=T
         wScrn=  0.000000 ICntrl=     500 IOpCl=  0 I1Cent=   200000004 NGrid=           0
         NMat0=    1 NMatS0=      1 NMatT0=    0 NMatD0=    1 NMtDS0=    0 NMtDT0=    0
 Petite list used in FoFCou.
 Harris En= -769.637129715930    
 JPrj=0 DoOrth=F DoCkMO=F.
 Leave Link  401 at Thu Feb 27 01:16:58 2020, MaxMem=   268435456 cpu:        42.7
 (Enter /opt/gaussian/g09/l502.exe)
 Closed shell SCF:
 Using DIIS extrapolation, IDIIS=  1040.
 Integral symmetry usage will be decided dynamically.
 IVT=      322994 IEndB=      322994 NGot=   268435456 MDV=   268228013
 LenX=   268228013 LenY=   268128976
 Requested convergence on RMS density matrix=1.00D-07 within 128 cycles.
 Requested convergence on MAX density matrix=1.00D-05.
 Requested convergence on             energy=1.00D-05.
 No special actions if energy rises.
 Fock matrices will be formed incrementally for  20 cycles.
 Integral accuracy reduced to 1.0D-05 until final iterations.

 Cycle   1  Pass 0  IDiag  1:
 FoFJK:  IHMeth= 1 ICntrl=     500 DoSepK=F KAlg= 0 I1Cent=   0 FoldK=F
 IRaf= 760000000 NMat=   1 IRICut=       1 DoRegI=T DoRafI=F ISym2E= 0.
 FoFCou: FMM=F IPFlag=           0 FMFlag=      100000 FMFlg1=           0
         NFxFlg=           0 DoJE=T BraDBF=F KetDBF=F FulRan=T
         wScrn=  0.000000 ICntrl=     500 IOpCl=  0 I1Cent=           0 NGrid=           0
         NMat0=    1 NMatS0=      1 NMatT0=    0 NMatD0=    1 NMtDS0=    0 NMtDT0=    0
 Symmetry not used in FoFCou.
 E= -768.792413296084    
 DIIS: error= 2.49D-02 at cycle   1 NSaved=   1.
 NSaved= 1 IEnMin= 1 EnMin= -768.792413296084     IErMin= 1 ErrMin= 2.49D-02
 ErrMax= 2.49D-02  0.00D+00 EMaxC= 1.00D-01 BMatC= 4.40D-01 BMatP= 4.40D-01
 IDIUse=3 WtCom= 7.51D-01 WtEn= 2.49D-01
 Coeff-Com:  0.100D+01
 Coeff-En:   0.100D+01
 Coeff:      0.100D+01
 Gap=     0.152 Goal=   None    Shift=    0.000
 GapD=    0.152 DampG=1.000 DampE=0.500 DampFc=0.5000 IDamp=-1.
 Damping current iteration by 5.00D-01
 RMSDP=7.35D-03 MaxDP=3.85D-01              OVMax= 3.70D-01

 Cycle   2  Pass 0  IDiag  1:
 RMSU=  3.66D-03    CP:  9.84D-01
 E= -768.867156883887     Delta-E=       -0.074743587803 Rises=F Damp=T
 DIIS: error= 2.48D-02 at cycle   2 NSaved=   2.
 NSaved= 2 IEnMin= 2 EnMin= -768.867156883887     IErMin= 2 ErrMin= 2.48D-02
 ErrMax= 2.48D-02  0.00D+00 EMaxC= 1.00D-01 BMatC= 1.01D-01 BMatP= 4.40D-01
 IDIUse=3 WtCom= 7.52D-01 WtEn= 2.48D-01
 Coeff-Com:  0.289D+00 0.711D+00
 Coeff-En:   0.428D+00 0.572D+00
 Coeff:      0.323D+00 0.677D+00
 Gap=     0.204 Goal=   None    Shift=    0.000
 RMSDP=2.41D-03 MaxDP=1.68D-01 DE=-7.47D-02 OVMax= 2.82D-01

[...]
     3  C    0.000000  -0.000488   0.000400   0.000002  -0.000006  -0.056738
     4  C    0.000000   0.000013   0.000006  -0.000002   0.000000   0.310500
     5  C    0.000001   0.000039  -0.000134  -0.000019   0.000000  -0.069248
     6  C   -0.000059   0.000228   0.000229   0.000154   0.000006   0.004872
     7  H   -0.000083  -0.000972   0.001709   0.000039  -0.000020  -0.000098
     8  H    0.000000  -0.000001   0.000005   0.000000   0.000000  -0.010087
     9  H    0.000000  -0.000001   0.000000   0.000000   0.000000  -0.008291
    10  N   -0.092901  -0.121986   0.001094   0.000125   0.004210   0.000000
    11  C    0.647345   0.319580  -0.010235  -0.020840  -0.022333   0.000000
    12  H    0.010927   0.010580  -0.000238  -0.000215  -0.000170   0.000000
    13  O    7.951957  -0.089970   0.003105  -0.000275   0.003002   0.000000
    14  C   -0.089970   5.425420   0.322926   0.356456   0.356837   0.000000
    15  H    0.003105   0.322926   0.547295  -0.025516  -0.023768   0.000000
    16  H   -0.000275   0.356456  -0.025516   0.521878  -0.022041   0.000000
    17  H    0.003002   0.356837  -0.023768  -0.022041   0.514809   0.000000
    18  N    0.000000   0.000000   0.000000   0.000000   0.000000   7.032558
    19  H    0.000000   0.000000   0.000000   0.000000   0.000000   0.303811
    20  H   -0.000039   0.000004   0.000006  -0.000013   0.000002  -0.000105
    21  C    0.000000   0.000000   0.000000   0.000000   0.000000   0.299527
    22  C    0.000000   0.000000   0.000000   0.000000   0.000000  -0.047441
    23  C    0.000000   0.000000   0.000000   0.000000   0.000000  -0.072876
    24  C    0.000000   0.000000   0.000000   0.000000   0.000000  -0.005205
    25  H    0.000000   0.000000   0.000000   0.000000   0.000000  -0.002757
    26  H    0.000000   0.000000   0.000000   0.000000   0.000000   0.004729
    27  C    0.000000   0.000000   0.000000   0.000000   0.000000  -0.000988
    28  H    0.000000   0.000000   0.000000   0.000000   0.000000  -0.009005
    29  H    0.000000   0.000000   0.000000   0.000000   0.000000   0.005377
    30  C    0.000000   0.000000   0.000000   0.000000   0.000000  -0.002613
    31  H    0.000000   0.000000   0.000000   0.000000   0.000000   0.001626
    32  H    0.000000   0.000000   0.000000   0.000000   0.000000   0.000271
    33  H    0.000000   0.000000   0.000000   0.000000   0.000000   0.004950
    34  H    0.000000   0.000000   0.000000   0.000000   0.000000   0.000109
    35  H    0.000000   0.000000   0.000000   0.000000   0.000000   0.000069
    36  H    0.000000   0.000000   0.000000   0.000000   0.000000  -0.000031
    37  C    0.000000   0.000000   0.000000   0.000000   0.000000  -0.065820
    38  H    0.000000   0.000000   0.000000   0.000000   0.000000   0.001017
    39  H    0.000000   0.000000   0.000000   0.000000   0.000000   0.004717
    40  H    0.000000   0.000000   0.000000   0.000000   0.000000  -0.002835
              19         20         21         22         23         24
     1  C   -0.000023  -0.044343   0.000001   0.000000  -0.000002   0.000000
     2  C    0.000135   0.006719  -0.000116   0.000002   0.000000  -0.000001
     3  C   -0.009248   0.000598   0.004935  -0.000324   0.000354  -0.000110
     4  C   -0.034402   0.004026  -0.030143   0.005055  -0.002251   0.000096
     5  C    0.006938  -0.039451  -0.005261   0.000070  -0.004207  -0.000004
     6  C   -0.000064   0.344839   0.000093  -0.000002  -0.000067   0.000000
     7  H   -0.000023  -0.000213   0.000002   0.000000   0.000000   0.000000
     8  H    0.010732   0.000019   0.000021  -0.000046   0.000018  -0.000047
     9  H   -0.000161  -0.007204   0.003744  -0.000016  -0.002583  -0.000002
    10  N    0.000000  -0.003267   0.000000   0.000000   0.000000   0.000000
    11  C    0.000000   0.000002   0.000000   0.000000   0.000000   0.000000
    12  H    0.000000   0.001260   0.000000   0.000000   0.000000   0.000000
    13  O    0.000000  -0.000039   0.000000   0.000000   0.000000   0.000000
    14  C    0.000000   0.000004   0.000000   0.000000   0.000000   0.000000
    15  H    0.000000   0.000006   0.000000   0.000000   0.000000   0.000000
    16  H    0.000000  -0.000013   0.000000   0.000000   0.000000   0.000000
    17  H    0.000000   0.000002   0.000000   0.000000   0.000000   0.000000
    18  N    0.303811  -0.000105   0.299527  -0.047441  -0.072876  -0.005205
    19  H    0.436011   0.000004  -0.047812  -0.009917   0.003316   0.007075
    20  H    0.000004   0.602388   0.000000   0.000000   0.000001   0.000000
    21  C   -0.047812   0.000000   4.712557   0.383271   0.381681  -0.026361
    22  C   -0.009917   0.000000   0.383271   5.153432  -0.047830   0.364007
    23  C    0.003316   0.000001   0.381681  -0.047830   5.157756  -0.021941
    24  C    0.007075   0.000000  -0.026361   0.364007  -0.021941   5.050143
    25  H    0.001291   0.000000  -0.033014   0.354281   0.007008  -0.034992
    26  H    0.000343   0.000000  -0.033497   0.363137  -0.003927  -0.036388
    27  C    0.000194   0.000000  -0.022764  -0.019213   0.361779  -0.042503
    28  H   -0.000416  -0.000010  -0.032338   0.005982   0.355737   0.000040
    29  H   -0.000149   0.000000  -0.031720  -0.006062   0.354666  -0.000131
    30  C   -0.000573   0.000000  -0.016428  -0.040234  -0.036583   0.381476
    31  H    0.012682   0.000000  -0.008285  -0.042242  -0.000806   0.364373
    32  H   -0.000607   0.000000   0.004326  -0.030128  -0.000074   0.365449
    33  H    0.000254  -0.000001  -0.010216  -0.001049  -0.037015  -0.004226
    34  H    0.000006   0.000000   0.004278   0.000244  -0.030280   0.005071
    35  H    0.000045   0.000000  -0.001460  -0.004688  -0.004737  -0.041336
    36  H    0.000008   0.000000   0.000306   0.004904   0.004945  -0.032189
    37  C    0.006009   0.000003   0.377475  -0.055276  -0.068901   0.005648
    38  H    0.000126   0.000000  -0.023129  -0.006108   0.005735  -0.000002
    39  H   -0.000182   0.000000  -0.025739  -0.006716  -0.001896  -0.000030
    40  H   -0.000222  -0.000010  -0.027606   0.005362  -0.005240  -0.000185
              25         26         27         28         29         30
     1  C    0.000000   0.000000   0.000006  -0.000029   0.000000   0.000000
     2  C    0.000000   0.000000  -0.000019  -0.000033   0.000000   0.000000
     3  C    0.000000   0.000003  -0.000466   0.000048  -0.000002   0.000037
     4  C    0.000066  -0.000106  -0.001028   0.004068   0.000187  -0.000066
     5  C   -0.000017   0.000002   0.000119   0.007476  -0.000086   0.000017
     6  C    0.000000   0.000000  -0.000003   0.000246  -0.000003   0.000000
     7  H    0.000000   0.000000   0.000000   0.000000   0.000000   0.000000
     8  H   -0.000001   0.000001  -0.000007  -0.000008   0.000000   0.000001
     9  H    0.000000   0.000005   0.000018   0.003899   0.000108   0.000000
    10  N    0.000000   0.000000   0.000000   0.000000   0.000000   0.000000
    11  C    0.000000   0.000000   0.000000   0.000000   0.000000   0.000000
    12  H    0.000000   0.000000   0.000000   0.000000   0.000000   0.000000
    13  O    0.000000   0.000000   0.000000   0.000000   0.000000   0.000000
    14  C    0.000000   0.000000   0.000000   0.000000   0.000000   0.000000
    15  H    0.000000   0.000000   0.000000   0.000000   0.000000   0.000000
    16  H    0.000000   0.000000   0.000000   0.000000   0.000000   0.000000
    17  H    0.000000   0.000000   0.000000   0.000000   0.000000   0.000000
    18  N   -0.002757   0.004729  -0.000988  -0.009005   0.005377  -0.002613
    19  H    0.001291   0.000343   0.000194  -0.000416  -0.000149  -0.000573
    20  H    0.000000   0.000000   0.000000  -0.000010   0.000000   0.000000
    21  C   -0.033014  -0.033497  -0.022764  -0.032338  -0.031720  -0.016428
    22  C    0.354281   0.363137  -0.019213   0.005982  -0.006062  -0.040234
    23  C    0.007008  -0.003927   0.361779   0.355737   0.354666  -0.036583
    24  C   -0.034992  -0.036388  -0.042503   0.000040  -0.000131   0.381476
    25  H    0.593466  -0.031863  -0.000098  -0.000167  -0.000117   0.005090
    26  H   -0.031863   0.581797  -0.000816  -0.000050   0.003578  -0.004361
    27  C   -0.000098  -0.000816   5.029777  -0.030852  -0.037810   0.384236
    28  H   -0.000167  -0.000050  -0.030852   0.584162  -0.035118   0.004921
    29  H   -0.000117   0.003578  -0.037810  -0.035118   0.606062  -0.006040
    30  C    0.005090  -0.004361   0.384236   0.004921  -0.006040   5.019652
    31  H   -0.004647   0.005879  -0.004365  -0.000028   0.000155  -0.040892
    32  H   -0.002997  -0.005221   0.005165   0.000011  -0.000030  -0.032252
    33  H   -0.000041   0.000140   0.368842  -0.004293   0.006077  -0.040842
    34  H    0.000013  -0.000040   0.366901  -0.002992  -0.004238  -0.032586
    35  H   -0.000040   0.005268  -0.040305  -0.000019   0.005935   0.369437
    36  H   -0.000161  -0.000013  -0.032250  -0.000166  -0.000012   0.366387
    37  C   -0.008075  -0.006153   0.005333  -0.006155  -0.003041   0.000069
    38  H    0.006087  -0.000103  -0.000193  -0.000026  -0.000008   0.000007
    39  H    0.000215   0.005575  -0.000035   0.000079   0.003230   0.000010
    40  H   -0.000109   0.000075   0.000045   0.002288   0.000036  -0.000001
              31         32         33         34         35         36
     1  C    0.000000   0.000000   0.000007   0.000000   0.000000   0.000000
     2  C   -0.000003   0.000000  -0.000059   0.000001   0.000000   0.000000
     3  C   -0.000143   0.000000   0.001380   0.000000   0.000000   0.000001
     4  C    0.000168   0.000001   0.004707  -0.000059   0.000005   0.000002
     5  C    0.000016   0.000000   0.000246  -0.000019   0.000000   0.000000
     6  C    0.000000   0.000000  -0.000078   0.000001   0.000000   0.000000
     7  H    0.000000   0.000000  -0.000001   0.000000   0.000000   0.000000
     8  H    0.000210   0.000000   0.000139   0.000000   0.000000   0.000000
     9  H    0.000000   0.000000   0.000042  -0.000005   0.000000   0.000000
    10  N    0.000000   0.000000   0.000000   0.000000   0.000000   0.000000
    11  C    0.000000   0.000000   0.000000   0.000000   0.000000   0.000000
    12  H    0.000000   0.000000   0.000000   0.000000   0.000000   0.000000
    13  O    0.000000   0.000000   0.000000   0.000000   0.000000   0.000000
    14  C    0.000000   0.000000   0.000000   0.000000   0.000000   0.000000
    15  H    0.000000   0.000000   0.000000   0.000000   0.000000   0.000000
    16  H    0.000000   0.000000   0.000000   0.000000   0.000000   0.000000
    17  H    0.000000   0.000000   0.000000   0.000000   0.000000   0.000000
    18  N    0.001626   0.000271   0.004950   0.000109   0.000069  -0.000031
    19  H    0.012682  -0.000607   0.000254   0.000006   0.000045   0.000008
    20  H    0.000000   0.000000  -0.000001   0.000000   0.000000   0.000000
    21  C   -0.008285   0.004326  -0.010216   0.004278  -0.001460   0.000306
    22  C   -0.042242  -0.030128  -0.001049   0.000244  -0.004688   0.004904
    23  C   -0.000806  -0.000074  -0.037015  -0.030280  -0.004737   0.004945
    24  C    0.364373   0.365449  -0.004226   0.005071  -0.041336  -0.032189
    25  H   -0.004647  -0.002997  -0.000041   0.000013  -0.000040  -0.000161
    26  H    0.005879  -0.005221   0.000140  -0.000040   0.005268  -0.000013
    27  C   -0.004365   0.005165   0.368842   0.366901  -0.040305  -0.032250
    28  H   -0.000028   0.000011  -0.004293  -0.002992  -0.000019  -0.000166
    29  H    0.000155  -0.000030   0.006077  -0.004238   0.005935  -0.000012
    30  C   -0.040892  -0.032252  -0.040842  -0.032586   0.369437   0.366387
    31  H    0.610026  -0.035720   0.004814  -0.000060   0.006175  -0.004982
    32  H   -0.035720   0.585640  -0.000024  -0.000165  -0.004837  -0.002367
    33  H    0.004814  -0.000024   0.589172  -0.035413   0.005930  -0.004137
    34  H   -0.000060  -0.000165  -0.035413   0.587988  -0.004668  -0.002570
    35  H    0.006175  -0.004837   0.005930  -0.004668   0.603373  -0.036228
    36  H   -0.004982  -0.002367  -0.004137  -0.002570  -0.036228   0.591421
    37  C    0.000065  -0.000104   0.000100  -0.000142  -0.000091   0.000005
    38  H   -0.000005  -0.000006   0.000002   0.000003   0.000001   0.000000
    39  H   -0.000001  -0.000013  -0.000001  -0.000004   0.000005   0.000000
    40  H    0.000003   0.000003  -0.000002  -0.000002   0.000001   0.000000
              37         38         39         40
     1  C   -0.000003   0.000000   0.000000   0.000001
     2  C    0.000007   0.000000   0.000000  -0.000001
     3  C   -0.000210   0.000003   0.000004  -0.000036
     4  C   -0.007868   0.000312   0.000117   0.000923
     5  C   -0.000260  -0.000095  -0.000042  -0.002417
     6  C    0.000216  -0.000007  -0.000004   0.000119
     7  H    0.000000   0.000000   0.000000   0.000000
     8  H    0.000000   0.000000   0.000000   0.000000
     9  H   -0.000702  -0.000186   0.000119   0.010480
    10  N    0.000000   0.000000   0.000000   0.000000
    11  C    0.000000   0.000000   0.000000   0.000000
    12  H    0.000000   0.000000   0.000000   0.000000
    13  O    0.000000   0.000000   0.000000   0.000000
    14  C    0.000000   0.000000   0.000000   0.000000
    15  H    0.000000   0.000000   0.000000   0.000000
    16  H    0.000000   0.000000   0.000000   0.000000
    17  H    0.000000   0.000000   0.000000   0.000000
    18  N   -0.065820   0.001017   0.004717  -0.002835
    19  H    0.006009   0.000126  -0.000182  -0.000222
    20  H    0.000003   0.000000   0.000000  -0.000010
    21  C    0.377475  -0.023129  -0.025739  -0.027606
    22  C   -0.055276  -0.006108  -0.006716   0.005362
    23  C   -0.068901   0.005735  -0.001896  -0.005240
    24  C    0.005648  -0.000002  -0.000030  -0.000185
    25  H   -0.008075   0.006087   0.000215  -0.000109
    26  H   -0.006153  -0.000103   0.005575   0.000075
    27  C    0.005333  -0.000193  -0.000035   0.000045
    28  H   -0.006155  -0.000026   0.000079   0.002288
    29  H   -0.003041  -0.000008   0.003230   0.000036
    30  C    0.000069   0.000007   0.000010  -0.000001
    31  H    0.000065  -0.000005  -0.000001   0.000003
    32  H   -0.000104  -0.000006  -0.000013   0.000003
    33  H    0.000100   0.000002  -0.000001  -0.000002
    34  H   -0.000142   0.000003  -0.000004  -0.000002
    35  H   -0.000091   0.000001   0.000005   0.000001
    36  H    0.000005   0.000000   0.000000   0.000000
    37  C    5.246892   0.354210   0.351827   0.358569
    38  H    0.354210   0.552406  -0.025933  -0.028161
    39  H    0.351827  -0.025933   0.571221  -0.028504
    40  H    0.358569  -0.028161  -0.028504   0.551538
 Mulliken charges:
               1
     1  C    0.244059
     2  C   -0.148470
     3  C   -0.229463
     4  C    0.355860
     5  C   -0.195786
     6  C   -0.165734
     7  H    0.139840
     8  H    0.123020
     9  H    0.133230
    10  N   -0.621280
    11  C    0.481304
    12  H    0.324603
    13  O   -0.435005
    14  C   -0.578303
    15  H    0.173741
    16  H    0.189003
    17  H    0.189148
    18  N   -0.626466
    19  H    0.314817
    20  H    0.134784
    21  C    0.203674
    22  C   -0.322454
    23  C   -0.291780
    24  C   -0.297728
    25  H    0.151578
    26  H    0.152004
    27  C   -0.288698
    28  H    0.152747
    29  H    0.139155
    30  C   -0.277872
    31  H    0.135986
    32  H    0.153679
    33  H    0.150595
    34  H    0.148627
    35  H    0.142165
    36  H    0.147126
    37  C   -0.483628
    38  H    0.164052
    39  H    0.151980
    40  H    0.165891
 Sum of Mulliken charges =   0.00000
 Mulliken charges with hydrogens summed into heavy atoms:
               1
     1  C    0.244059
     2  C   -0.008631
     3  C   -0.106443
     4  C    0.355860
     5  C   -0.062556
     6  C   -0.030951
    10  N   -0.296677
    11  C    0.481304
    13  O   -0.435005
    14  C   -0.026411
    18  N   -0.311649
    21  C    0.203674
    22  C   -0.018871
    23  C    0.000122
    24  C   -0.008064
    27  C    0.010524
    30  C    0.011420
    37  C   -0.001705
 Electronic spatial extent (au):  <R**2>=           6814.3722
 Charge=              0.0000 electrons
 Dipole moment (field-independent basis, Debye):
    X=              6.2960    Y=              0.2415    Z=              0.7201  Tot=              6.3416
 Quadrupole moment (field-independent basis, Debye-Ang):
   XX=           -135.2467   YY=           -107.0988   ZZ=           -103.2551
   XY=             -3.8502   XZ=             -3.5698   YZ=             -3.2090
 Traceless Quadrupole moment (field-independent basis, Debye-Ang):
   XX=            -20.0465   YY=              8.1014   ZZ=             11.9451
   XY=             -3.8502   XZ=             -3.5698   YZ=             -3.2090
 Octapole moment (field-independent basis, Debye-Ang**2):
  XXX=            265.7712  YYY=             -2.0425  ZZZ=             -4.1894  XYY=             -8.1336
  XXY=             29.3558  XXZ=             38.3187  XZZ=            -14.7826  YZZ=             -5.3334
  YYZ=             -1.8821  XYZ=             -1.0215
 Hexadecapole moment (field-independent basis, Debye-Ang**3):
 XXXX=          -9172.6381 YYYY=           -857.9875 ZZZZ=           -661.0410 XXXY=           -172.3315
 XXXZ=           -241.9667 YYYX=              5.2280 YYYZ=             -1.7408 ZZZX=             43.6717
 ZZZY=             -1.4493 XXYY=          -1368.8758 XXZZ=          -1301.2910 YYZZ=           -245.4459
 XXYZ=             -9.1224 YYXZ=              6.5946 ZZXY=             11.4012
 N-N= 1.313549644219D+03 E-N=-4.414671169834D+03  KE= 7.641604046434D+02
 Leave Link  601 at Thu Feb 27 01:20:42 2020, MaxMem=   268435456 cpu:         5.1
 (Enter /opt/gaussian/g09/l9999.exe)
 1\1\GINC-NODE103\SP\RPW91PW91 TD-FC\6-31G(d)\C15H22N2O1\ROOT\27-Feb-20
 20\0\\#p PW91PW91/6-31G(d) 5d TD=(nstate=20) scf(conver=7) gfinput gfp
 rint\\APA-2\\0,1\C,0,-0.058962506,0.700366515,1.727646225\C,0,-0.86260
 1687,0.052069835,0.781519724\C,0,-0.788024926,0.389442235,-0.56187549\
 C,0,0.077831651,1.405479861,-1.023434522\C,0,0.872057646,2.060804115,-
 0.061765813\C,0,0.803058241,1.705209742,1.282740994\H,0,-1.563740293,-
 0.714240265,1.115071556\H,0,-1.423334575,-0.131634103,-1.283969384\H,0
 ,1.574333582,2.833903989,-0.36225466\N,0,-0.139358343,0.372032703,3.11
 2789262\C,0,0.256942318,-0.784288309,3.756964485\H,0,-0.473126399,1.08
 5842597,3.764150789\O,0,0.112279775,-0.900474333,4.973085311\C,0,0.912
 161271,-1.858491743,2.914182048\H,0,0.578660512,-1.868300335,1.8696566
 22\H,0,2.000971229,-1.689196341,2.916443973\H,0,0.721315745,-2.8284699
 53,3.387740908\N,0,0.129328214,1.660273303,-2.387243805\H,0,-0.5936470
 12,1.152179855,-2.894314231\H,0,1.440298994,2.214069913,2.008598803\C,
 0,0.501709332,2.928901939,-3.05339965\C,0,-0.022470748,2.822707909,-4.
 506199884\C,0,-0.149469106,4.162670731,-2.381226952\C,0,-1.552027079,2
 .841112663,-4.62535355\H,0,0.398483322,1.913450909,-4.969117416\H,0,0.
 389561835,3.679958094,-5.064893774\C,0,-1.678080406,4.155321043,-2.473
 043865\H,0,0.165042538,4.223567696,-1.328464851\H,0,0.247448755,5.0640
 64331,-2.881027389\C,0,-2.152270335,4.064258452,-3.926544828\H,0,-1.98
 9489521,1.925248,-4.185303602\H,0,-1.836236025,2.823961785,-5.69025063
 2\H,0,-2.073802379,3.299185122,-1.898217675\H,0,-2.081037147,5.0629239
 26,-1.995421921\H,0,-1.84063971,4.977115495,-4.466734508\H,0,-3.252823
 492,4.028908922,-3.973381171\C,0,2.030925699,3.07779752,-3.106360944\H
 ,0,2.47909568,2.197713636,-3.590648353\H,0,2.303695198,3.975948143,-3.
 681742366\H,0,2.473340195,3.174304463,-2.10580031\\Version=ES64L-G09Re
 vD.01\State=1-A\HF=-769.2648034\RMSD=4.808e-08\PG=C01 [X(C15H22N2O1)]\
 \@


 ON A TOMBSTONE, "HERE LIES LESTER MOORE,
 FOUR SLUGS FROM A 44, NO LES, NO MORE".
 Job cpu time:       0 days  1 hours  1 minutes 36.4 seconds.
 File lengths (MBytes):  RWF=    365 Int=      0 D2E=      0 Chk=     66 Scr=      1
 Normal termination of Gaussian 09 at Thu Feb 27 01:20:43 2020.
