-catch_rsh /opt/sge/default/spool/node119/active_jobs/15636.1/pe_hostfile
node119
node119
node119
node119
node119
node119
node119
node119
node119
node119
node119
node119
node119
node119
node119
node119
Got 16 slots.
node119
node119
node119
node119
node119
node119
node119
node119
node119
node119
node119
node119
node119
node119
node119
node119
 Entering Gaussian System, Link 0=/opt/gaussian/g09/g09
 Initial command:
 /opt/gaussian/g09/l1.exe "/work/Gau-179946.inp" -scrdir="/work/"
 Entering Link 1 = /opt/gaussian/g09/l1.exe PID=    179947.
  
 Copyright (c) 1988,1990,1992,1993,1995,1998,2003,2009,2013,
            Gaussian, Inc.  All Rights Reserved.
  
 This is part of the Gaussian(R) 09 program.  It is based on
 the Gaussian(R) 03 system (copyright 2003, Gaussian, Inc.),
 the Gaussian(R) 98 system (copyright 1998, Gaussian, Inc.),
 the Gaussian(R) 94 system (copyright 1995, Gaussian, Inc.),
 the Gaussian 92(TM) system (copyright 1992, Gaussian, Inc.),
 the Gaussian 90(TM) system (copyright 1990, Gaussian, Inc.),
 the Gaussian 88(TM) system (copyright 1988, Gaussian, Inc.),
 the Gaussian 86(TM) system (copyright 1986, Carnegie Mellon
 University), and the Gaussian 82(TM) system (copyright 1983,
 Carnegie Mellon University). Gaussian is a federally registered
 trademark of Gaussian, Inc.
  
 This software contains proprietary and confidential information,
 including trade secrets, belonging to Gaussian, Inc.
  
 This software is provided under written license and may be
 used, copied, transmitted, or stored only in accord with that
 written license.
  
 The following legend is applicable only to US Government
 contracts under FAR:
  
                    RESTRICTED RIGHTS LEGEND
  
 Use, reproduction and disclosure by the US Government is
 subject to restrictions as set forth in subparagraphs (a)
 and (c) of the Commercial Computer Software - Restricted
 Rights clause in FAR 52.227-19.
  
 Gaussian, Inc.
 340 Quinnipiac St., Bldg. 40, Wallingford CT 06492
  
  
 ---------------------------------------------------------------
 Warning -- This program may not be used in any manner that
 competes with the business of Gaussian, Inc. or will provide
 assistance to any competitor of Gaussian, Inc.  The licensee
 of this program is prohibited from giving any competitor of
 Gaussian, Inc. access to this program.  By using this program,
 the user acknowledges that Gaussian, Inc. is engaged in the
 business of creating and licensing software in the field of
 computational chemistry and represents and warrants to the
 licensee that it is not a competitor of Gaussian, Inc. and that
 it will not use this program in any manner prohibited above.
 ---------------------------------------------------------------
  

 Cite this work as:
 Gaussian 09, Revision D.01,
 M. J. Frisch, G. W. Trucks, H. B. Schlegel, G. E. Scuseria, 
 M. A. Robb, J. R. Cheeseman, G. Scalmani, V. Barone, B. Mennucci, 
 G. A. Petersson, H. Nakatsuji, M. Caricato, X. Li, H. P. Hratchian, 
 A. F. Izmaylov, J. Bloino, G. Zheng, J. L. Sonnenberg, M. Hada, 
 M. Ehara, K. Toyota, R. Fukuda, J. Hasegawa, M. Ishida, T. Nakajima, 
 Y. Honda, O. Kitao, H. Nakai, T. Vreven, J. A. Montgomery, Jr., 
 J. E. Peralta, F. Ogliaro, M. Bearpark, J. J. Heyd, E. Brothers, 
 K. N. Kudin, V. N. Staroverov, T. Keith, R. Kobayashi, J. Normand, 
 K. Raghavachari, A. Rendell, J. C. Burant, S. S. Iyengar, J. Tomasi, 
 M. Cossi, N. Rega, J. M. Millam, M. Klene, J. E. Knox, J. B. Cross, 
 V. Bakken, C. Adamo, J. Jaramillo, R. Gomperts, R. E. Stratmann, 
 O. Yazyev, A. J. Austin, R. Cammi, C. Pomelli, J. W. Ochterski, 
 R. L. Martin, K. Morokuma, V. G. Zakrzewski, G. A. Voth, 
 P. Salvador, J. J. Dannenberg, S. Dapprich, A. D. Daniels, 
 O. Farkas, J. B. Foresman, J. V. Ortiz, J. Cioslowski, 
 and D. J. Fox, Gaussian, Inc., Wallingford CT, 2013.
 
 ******************************************
 Gaussian 09:  ES64L-G09RevD.01 24-Apr-2013
                10-Mar-2020 
 ******************************************
 %nproc=20
 Will use up to   20 processors via shared memory.
 %mem=2gb
 %chk=APA-4.chk
 ----------------------------------------------------------------------
 #p PW91PW91/Gen Pseudo=read 5d TD=(nstate=20) scf(conver=7) gfinput gf
 print
 ----------------------------------------------------------------------
 1/38=1/1;
 2/12=2,17=6,18=5,40=1/2;
 3/5=7,8=1,11=9,16=1,17=8,24=110,25=1,30=1,74=608/1,2,8,3;
 4//1;
 5/5=2,6=7,38=5/2;
 8/6=1,10=1,108=20/1;
 9/41=20,42=1,70=2/14;
 6/7=2,8=2,9=2,10=2/1;
 99/5=1,9=1/99;
 Leave Link    1 at Tue Mar 10 22:23:53 2020, MaxMem=   268435456 cpu:         2.3
 (Enter /opt/gaussian/g09/l101.exe)
 -----
 APA-4
 -----
 Symbolic Z-matrix:
 Charge =  2 Multiplicity = 2
 C                    -1.34837   0.46904  -1.41926 
 C                    -0.22206   1.11798  -0.96131 
 C                     0.17501   1.00945   0.40424 
 C                    -0.63074   0.20973   1.26298 
 C                    -1.76096  -0.44068   0.81199 
 C                    -2.14591  -0.32154  -0.5493 
 H                    -1.62711   0.56918  -2.47074 
 H                     0.35514   1.71255  -1.66317 
 H                    -0.37411   0.08474   2.31559 
 H                    -2.35683  -1.04008   1.49737 
 N                    -3.25784  -0.93396  -1.07895 
 C                    -4.21984  -1.74676  -0.43682 
 H                    -3.42696  -0.77663  -2.0796 
 O                    -4.12758  -2.00336   0.75594 
 C                    -5.34095  -2.23184  -1.30474 
 H                    -6.05996  -1.40905  -1.46063 
 H                    -4.98123  -2.5759   -2.28505 
 H                    -5.86153  -3.0496   -0.79498 
 C                     1.33623   1.66373   0.94396 
 N                     2.23943   2.46858   0.40056 
 N                     1.75581   1.53713   2.33779 
 H                     1.04158   1.87653   3.00198 
 H                     1.98745   0.56462   2.59796 
 O                     2.10428   2.78173  -0.91932 
 H                     2.86216   3.37836  -1.14208 
 Co                    3.36643   2.82196   1.94366 
 
 NAtoms=     26 NQM=       26 NQMF=       0 NMMI=      0 NMMIF=      0
                NMic=       0 NMicF=      0.
                    Isotopes and Nuclear Properties:
 (Nuclear quadrupole moments (NQMom) in fm**2, nuclear magnetic moments (NMagM)
  in nuclear magnetons)

  Atom         1           2           3           4           5           6           7           8           9          10
 IAtWgt=          12          12          12          12          12          12           1           1           1           1
 AtmWgt=  12.0000000  12.0000000  12.0000000  12.0000000  12.0000000  12.0000000   1.0078250   1.0078250   1.0078250   1.0078250
 NucSpn=           0           0           0           0           0           0           1           1           1           1
 AtZEff=   0.0000000   0.0000000   0.0000000   0.0000000   0.0000000   0.0000000   0.0000000   0.0000000   0.0000000   0.0000000
 NQMom=    0.0000000   0.0000000   0.0000000   0.0000000   0.0000000   0.0000000   0.0000000   0.0000000   0.0000000   0.0000000
 NMagM=    0.0000000   0.0000000   0.0000000   0.0000000   0.0000000   0.0000000   2.7928460   2.7928460   2.7928460   2.7928460
 AtZNuc=   6.0000000   6.0000000   6.0000000   6.0000000   6.0000000   6.0000000   1.0000000   1.0000000   1.0000000   1.0000000

  Atom        11          12          13          14          15          16          17          18          19          20
 IAtWgt=          14          12           1          16          12           1           1           1          12          14
 AtmWgt=  14.0030740  12.0000000   1.0078250  15.9949146  12.0000000   1.0078250   1.0078250   1.0078250  12.0000000  14.0030740
 NucSpn=           2           0           1           0           0           1           1           1           0           2
 AtZEff=   0.0000000   0.0000000   0.0000000   0.0000000   0.0000000   0.0000000   0.0000000   0.0000000   0.0000000   0.0000000
 NQMom=    2.0440000   0.0000000   0.0000000   0.0000000   0.0000000   0.0000000   0.0000000   0.0000000   0.0000000   2.0440000
 NMagM=    0.4037610   0.0000000   2.7928460   0.0000000   0.0000000   2.7928460   2.7928460   2.7928460   0.0000000   0.4037610
 AtZNuc=   7.0000000   6.0000000   1.0000000   8.0000000   6.0000000   1.0000000   1.0000000   1.0000000   6.0000000   7.0000000

  Atom        21          22          23          24          25          26
 IAtWgt=          14           1           1          16           1          59
 AtmWgt=  14.0030740   1.0078250   1.0078250  15.9949146   1.0078250  58.9331978
 NucSpn=           2           1           1           0           1           7
 AtZEff=   0.0000000   0.0000000   0.0000000   0.0000000   0.0000000   0.0000000
 NQMom=    2.0440000   0.0000000   0.0000000   0.0000000   0.0000000  42.0000000
 NMagM=    0.4037610   2.7928460   2.7928460   0.0000000   2.7928460   4.6270000
 AtZNuc=   7.0000000   1.0000000   1.0000000   8.0000000   1.0000000  27.0000000
 Leave Link  101 at Tue Mar 10 22:23:53 2020, MaxMem=   268435456 cpu:         2.8
 (Enter /opt/gaussian/g09/l202.exe)
                          Input orientation:                          
 ---------------------------------------------------------------------
 Center     Atomic      Atomic             Coordinates (Angstroms)
 Number     Number       Type             X           Y           Z
 ---------------------------------------------------------------------
      1          6           0       -1.348370    0.469042   -1.419258
      2          6           0       -0.222056    1.117976   -0.961306
      3          6           0        0.175009    1.009448    0.404239
      4          6           0       -0.630735    0.209729    1.262982
      5          6           0       -1.760964   -0.440677    0.811991
      6          6           0       -2.145914   -0.321545   -0.549296
      7          1           0       -1.627110    0.569179   -2.470736
      8          1           0        0.355140    1.712555   -1.663167
      9          1           0       -0.374110    0.084739    2.315591
     10          1           0       -2.356830   -1.040075    1.497369
     11          7           0       -3.257844   -0.933958   -1.078953
     12          6           0       -4.219843   -1.746763   -0.436818
     13          1           0       -3.426961   -0.776627   -2.079596
     14          8           0       -4.127577   -2.003355    0.755938
     15          6           0       -5.340948   -2.231840   -1.304741
     16          1           0       -6.059959   -1.409048   -1.460632
     17          1           0       -4.981228   -2.575895   -2.285054
     18          1           0       -5.861529   -3.049604   -0.794978
     19          6           0        1.336226    1.663730    0.943962
     20          7           0        2.239430    2.468584    0.400558
     21          7           0        1.755810    1.537126    2.337792
     22          1           0        1.041583    1.876534    3.001977
     23          1           0        1.987455    0.564623    2.597960
     24          8           0        2.104275    2.781734   -0.919319
     25          1           0        2.862164    3.378364   -1.142082
     26         27           0        3.366434    2.821958    1.943661
 ---------------------------------------------------------------------
                    Distance matrix (angstroms):
                    1          2          3          4          5
     1  C    0.000000
     2  C    1.378193   0.000000
     3  C    2.436772   1.426237   0.000000
     4  C    2.788665   2.437086   1.423451   0.000000
     5  C    2.444646   2.818194   2.452981   1.379796   0.000000
     6  C    1.420541   2.437868   2.840326   2.421233   1.419677
     7  H    1.092397   2.133948   3.421542   3.881058   3.437153
     8  H    2.123148   1.085950   2.191112   3.434062   3.903935
     9  H    3.878913   3.439296   2.193145   1.090626   2.111928
    10  H    3.435279   3.906345   3.435941   2.143910   1.088154
    11  N    2.393806   3.666099   4.214399   3.700592   2.461635
    12  C    3.757704   4.946122   5.255359   4.427062   3.051471
    13  H    2.511629   3.887352   4.725853   4.468177   3.354055
    14  O    4.309086   5.286277   5.264306   4.169261   2.836540
    15  C    4.821676   6.127175   6.622110   5.894113   4.528256
    16  H    5.072278   6.380931   6.942743   6.286094   4.958217
    17  H    4.818600   6.168202   6.831820   6.266981   4.951863
    18  H    5.756666   7.014274   7.372504   6.497665   5.118934
    19  C    3.770827   2.521138   1.437989   2.466745   3.746803
    20  N    4.492461   3.120534   2.528028   3.752872   4.963489
    21  N    4.989204   3.869327   2.552647   2.934757   4.313638
    22  H    5.219217   4.228452   2.872461   2.932404   4.244970
    23  H    5.222537   4.225696   2.880146   2.960242   4.272114
    24  O    4.185599   2.860362   2.935110   4.342572   5.321789
    25  H    5.125385   3.828113   3.901753   5.293858   6.306884
    26  Co   6.250984   4.921346   3.979976   4.823321   6.181882
                    6          7          8          9         10
     6  C    0.000000
     7  H    2.180476   0.000000
     8  H    3.410797   2.426683   0.000000
     9  H    3.392924   4.971279   4.360287   0.000000
    10  H    2.179360   4.343737   4.992068   2.421956   0.000000
    11  N    1.375491   2.618353   4.516523   4.569091   2.731396
    12  C    2.518945   4.027738   5.865260   5.071471   2.776924
    13  H    2.046949   2.281150   4.546837   5.420288   3.742895
    14  O    2.908455   4.825111   6.305141   4.569591   2.147829
    15  C    3.798443   4.795607   6.937733   6.568320   4.263459
    16  H    4.163285   4.958209   7.137150   6.987141   4.753848
    17  H    4.016710   4.601747   6.874181   7.033523   4.853137
    18  H    4.616110   5.816705   7.879015   7.043544   4.644995
    19  C    4.277433   4.651835   2.786043   2.701820   4.610367
    20  N    5.283775   5.177084   2.895012   4.022519   5.885515
    21  N    5.197440   5.958440   4.242679   2.578077   4.925656
    22  H    5.253877   6.227494   4.718226   2.384500   4.724369
    23  H    5.270223   6.225494   4.705252   2.426316   4.760165
    24  O    5.275544   4.607117   2.180809   4.886801   6.352013
    25  H    6.254723   5.459893   3.054770   5.768617   7.329885
    26  Co   6.817802   7.035438   4.827823   4.649986   6.918831
                   11         12         13         14         15
    11  N    0.000000
    12  C    1.413659   0.000000
    13  H    1.026957   2.066046   0.000000
    14  O    2.294967   1.223528   3.167962   0.000000
    15  C    2.464711   1.498488   2.526142   2.402265   0.000000
    16  H    2.867619   2.132667   2.777724   3.000081   1.103750
    17  H    2.668463   2.164057   2.386488   3.210009   1.099448
    18  H    3.366865   2.126219   3.569845   2.550798   1.095263
    19  C    5.652048   6.663927   6.146966   6.583009   8.050887
    20  N    6.632214   7.758387   6.985023   7.788665   9.080978
    21  N    6.551116   7.361441   7.192210   7.046382   8.822535
    22  H    6.560330   7.255081   7.268393   6.842400   8.727156
    23  H    6.578647   7.285804   7.279724   6.883398   8.761094
    24  O    6.525655   7.793239   6.678529   8.033651   8.984199
    25  H    7.486962   8.770357   7.595787   9.023406   9.939412
    26  Co   8.192933   9.170141   8.676786   8.991914  10.578823
                   16         17         18         19         20
    16  H    0.000000
    17  H    1.790213   0.000000
    18  H    1.781542   1.794340   0.000000
    19  C    8.362272   8.265059   8.777649   0.000000
    20  N    9.347723   9.208539   9.874475   1.326218   0.000000
    21  N    9.175740   9.147422   9.427417   1.461110   2.203265
    22  H    9.007875   9.167938   9.291752   2.089863   2.924507
    23  H    9.226506   9.070238   9.283384   2.089939   2.918412
    24  O    9.192953   8.987424   9.872893   2.304701   1.363234
    25  H   10.130403   9.913546  10.841683   3.101618   1.896111
    26  Co  10.878764  10.802885  11.275224   2.542171   1.943239
                   21         22         23         24         25
    21  N    0.000000
    22  H    1.032695   0.000000
    23  H    1.033009   1.667038   0.000000
    24  O    3.504177   4.162363   4.159384   0.000000
    25  H    4.089463   4.768987   4.761320   0.989943   0.000000
    26  Co   2.097676   2.723746   2.724931   3.129108   3.175797
                   26
    26  Co   0.000000
 Stoichiometry    C9H11CoN3O2(2+,2)
 Framework group  C1[X(C9H11CoN3O2)]
 Deg. of freedom    72
 Full point group                 C1      NOp   1
 Largest Abelian subgroup         C1      NOp   1
 Largest concise Abelian subgroup C1      NOp   1
                         Standard orientation:                         
 ---------------------------------------------------------------------
 Center     Atomic      Atomic             Coordinates (Angstroms)
 Number     Number       Type             X           Y           Z
 ---------------------------------------------------------------------
      1          6           0       -1.578055    1.521265   -0.029588
      2          6           0       -0.205647    1.395136   -0.027465
      3          6           0        0.406151    0.106798   -0.021179
      4          6           0       -0.451139   -1.029542   -0.019772
      5          6           0       -1.825813   -0.910772   -0.019316
      6          6           0       -2.421196    0.378022   -0.022828
      7          1           0       -2.018443    2.520938   -0.036080
      8          1           0        0.397961    2.297872   -0.030945
      9          1           0       -0.041275   -2.040223   -0.020706
     10          1           0       -2.451387   -1.801108   -0.013150
     11          7           0       -3.781056    0.584779   -0.020067
     12          6           0       -4.827926   -0.364815    0.007632
     13          1           0       -4.089315    1.564332   -0.029698
     14          8           0       -4.585764   -1.564024    0.024223
     15          6           0       -6.215003    0.201254    0.040013
     16          1           0       -6.436937    0.556986    1.061024
     17          1           0       -6.331251    1.041852   -0.659034
     18          1           0       -6.931025   -0.588745   -0.210616
     19          6           0        1.830362   -0.091691   -0.015339
     20          7           0        2.848860    0.757470    0.005709
     21          7           0        2.458745   -1.410697   -0.029508
     22          1           0        2.200703   -1.984511    0.789401
     23          1           0        2.227219   -1.953852   -0.877144
     24          8           0        2.568134    2.091282    0.029027
     25          1           0        3.440831    2.558533    0.037024
     26         27           0        4.341396   -0.486849    0.019186
 ---------------------------------------------------------------------
 Rotational constants (GHZ):      1.7891523      0.1653925      0.1516834
 Leave Link  202 at Tue Mar 10 22:23:53 2020, MaxMem=   268435456 cpu:         1.1
 (Enter /opt/gaussian/g09/l301.exe)
 General basis read from cards:  (5D, 7F)
 Centers:      26
 SDD
 ****
 Centers:       1      2      3      4      5      6     12     15     19      7
 Centers:       8      9     10     13     16     17     18     22     23     25
 Centers:      11     20     21     14     24
 6-31G(d)
 ****
 ======================================================================================================
                                       Pseudopotential Parameters
 ======================================================================================================
  Center     Atomic      Valence      Angular      Power
  Number     Number     Electrons     Momentum     of R      Exponent        Coefficient   SO-Coeffient
 ======================================================================================================
    1          6
                                   No pseudopotential on this center.
    2          6
                                   No pseudopotential on this center.
    3          6
                                   No pseudopotential on this center.
    4          6
                                   No pseudopotential on this center.
    5          6
                                   No pseudopotential on this center.
    6          6
                                   No pseudopotential on this center.
    7          1
                                   No pseudopotential on this center.
    8          1
                                   No pseudopotential on this center.
    9          1
                                   No pseudopotential on this center.
   10          1
                                   No pseudopotential on this center.
   11          7
                                   No pseudopotential on this center.
   12          6
                                   No pseudopotential on this center.
   13          1
                                   No pseudopotential on this center.
   14          8
                                   No pseudopotential on this center.
   15          6
                                   No pseudopotential on this center.
   16          1
                                   No pseudopotential on this center.
   17          1
                                   No pseudopotential on this center.
   18          1
                                   No pseudopotential on this center.
   19          6
                                   No pseudopotential on this center.
   20          7
                                   No pseudopotential on this center.
   21          7
                                   No pseudopotential on this center.
   22          1
                                   No pseudopotential on this center.
   23          1
                                   No pseudopotential on this center.
   24          8
                                   No pseudopotential on this center.
   25          1
                                   No pseudopotential on this center.
   26         27           17
                                      F and up 
                                                     2        1.0000000        0.00000000    0.00000000
                                      S - F
                                                     2       23.6600000      283.96056600    0.00000000
                                                     2       10.6100000       47.15684600    0.00000000
                                      P - F
                                                     2       25.0400000      182.21223600    0.00000000
                                                     2       10.4400000       35.23335200    0.00000000
                                      D - F
                                                     2       29.5400000      -26.47533300    0.00000000
                                                     2       10.1800000       -1.82578700    0.00000000
 ======================================================================================================
 Ernie: Thresh=  0.10000D-02 Tol=  0.10000D-05 Strict=F.
 AO basis set in the form of general basis input (Overlap normalization):
      1 0
 S   6 1.00       0.000000000000
      0.3047524880D+04  0.1834737132D-02
      0.4573695180D+03  0.1403732281D-01
      0.1039486850D+03  0.6884262226D-01
      0.2921015530D+02  0.2321844432D+00
      0.9286662960D+01  0.4679413484D+00
      0.3163926960D+01  0.3623119853D+00
 SP   3 1.00       0.000000000000
      0.7868272350D+01 -0.1193324198D+00  0.6899906659D-01
      0.1881288540D+01 -0.1608541517D+00  0.3164239610D+00
      0.5442492580D+00  0.1143456438D+01  0.7443082909D+00
 SP   1 1.00       0.000000000000
      0.1687144782D+00  0.1000000000D+01  0.1000000000D+01
 D   1 1.00       0.000000000000
      0.8000000000D+00  0.1000000000D+01
 ****
      2 0
 S   6 1.00       0.000000000000
      0.3047524880D+04  0.1834737132D-02
      0.4573695180D+03  0.1403732281D-01
      0.1039486850D+03  0.6884262226D-01
      0.2921015530D+02  0.2321844432D+00
      0.9286662960D+01  0.4679413484D+00
      0.3163926960D+01  0.3623119853D+00
 SP   3 1.00       0.000000000000
      0.7868272350D+01 -0.1193324198D+00  0.6899906659D-01
      0.1881288540D+01 -0.1608541517D+00  0.3164239610D+00
      0.5442492580D+00  0.1143456438D+01  0.7443082909D+00
 SP   1 1.00       0.000000000000
      0.1687144782D+00  0.1000000000D+01  0.1000000000D+01
 D   1 1.00       0.000000000000
      0.8000000000D+00  0.1000000000D+01
 ****
      3 0
 S   6 1.00       0.000000000000
      0.3047524880D+04  0.1834737132D-02
      0.4573695180D+03  0.1403732281D-01
      0.1039486850D+03  0.6884262226D-01
      0.2921015530D+02  0.2321844432D+00
      0.9286662960D+01  0.4679413484D+00
      0.3163926960D+01  0.3623119853D+00
 SP   3 1.00       0.000000000000
      0.7868272350D+01 -0.1193324198D+00  0.6899906659D-01
      0.1881288540D+01 -0.1608541517D+00  0.3164239610D+00
      0.5442492580D+00  0.1143456438D+01  0.7443082909D+00
 SP   1 1.00       0.000000000000
      0.1687144782D+00  0.1000000000D+01  0.1000000000D+01
 D   1 1.00       0.000000000000
      0.8000000000D+00  0.1000000000D+01
 ****
      4 0
 S   6 1.00       0.000000000000
      0.3047524880D+04  0.1834737132D-02
      0.4573695180D+03  0.1403732281D-01
      0.1039486850D+03  0.6884262226D-01
      0.2921015530D+02  0.2321844432D+00
      0.9286662960D+01  0.4679413484D+00
      0.3163926960D+01  0.3623119853D+00
 SP   3 1.00       0.000000000000
      0.7868272350D+01 -0.1193324198D+00  0.6899906659D-01
      0.1881288540D+01 -0.1608541517D+00  0.3164239610D+00
      0.5442492580D+00  0.1143456438D+01  0.7443082909D+00
 SP   1 1.00       0.000000000000
      0.1687144782D+00  0.1000000000D+01  0.1000000000D+01
 D   1 1.00       0.000000000000
      0.8000000000D+00  0.1000000000D+01
 ****
      5 0
 S   6 1.00       0.000000000000
      0.3047524880D+04  0.1834737132D-02
      0.4573695180D+03  0.1403732281D-01
      0.1039486850D+03  0.6884262226D-01
      0.2921015530D+02  0.2321844432D+00
      0.9286662960D+01  0.4679413484D+00
      0.3163926960D+01  0.3623119853D+00
 SP   3 1.00       0.000000000000
      0.7868272350D+01 -0.1193324198D+00  0.6899906659D-01
      0.1881288540D+01 -0.1608541517D+00  0.3164239610D+00
      0.5442492580D+00  0.1143456438D+01  0.7443082909D+00
 SP   1 1.00       0.000000000000
      0.1687144782D+00  0.1000000000D+01  0.1000000000D+01
 D   1 1.00       0.000000000000
      0.8000000000D+00  0.1000000000D+01
 ****
      6 0
 S   6 1.00       0.000000000000
      0.3047524880D+04  0.1834737132D-02
      0.4573695180D+03  0.1403732281D-01
      0.1039486850D+03  0.6884262226D-01
      0.2921015530D+02  0.2321844432D+00
      0.9286662960D+01  0.4679413484D+00
      0.3163926960D+01  0.3623119853D+00
 SP   3 1.00       0.000000000000
      0.7868272350D+01 -0.1193324198D+00  0.6899906659D-01
      0.1881288540D+01 -0.1608541517D+00  0.3164239610D+00
      0.5442492580D+00  0.1143456438D+01  0.7443082909D+00
 SP   1 1.00       0.000000000000
      0.1687144782D+00  0.1000000000D+01  0.1000000000D+01
 D   1 1.00       0.000000000000
      0.8000000000D+00  0.1000000000D+01
 ****
      7 0
 S   3 1.00       0.000000000000
      0.1873113696D+02  0.3349460434D-01
      0.2825394365D+01  0.2347269535D+00
      0.6401216923D+00  0.8137573261D+00
 S   1 1.00       0.000000000000
      0.1612777588D+00  0.1000000000D+01
 ****
      8 0
 S   3 1.00       0.000000000000
      0.1873113696D+02  0.3349460434D-01
      0.2825394365D+01  0.2347269535D+00
      0.6401216923D+00  0.8137573261D+00
 S   1 1.00       0.000000000000
      0.1612777588D+00  0.1000000000D+01
 ****
      9 0
 S   3 1.00       0.000000000000
      0.1873113696D+02  0.3349460434D-01
      0.2825394365D+01  0.2347269535D+00
      0.6401216923D+00  0.8137573261D+00
 S   1 1.00       0.000000000000
      0.1612777588D+00  0.1000000000D+01
 ****
     10 0
 S   3 1.00       0.000000000000
      0.1873113696D+02  0.3349460434D-01
      0.2825394365D+01  0.2347269535D+00
      0.6401216923D+00  0.8137573261D+00
 S   1 1.00       0.000000000000
      0.1612777588D+00  0.1000000000D+01
 ****
     11 0
 S   6 1.00       0.000000000000
      0.4173511460D+04  0.1834772160D-02
      0.6274579110D+03  0.1399462700D-01
      0.1429020930D+03  0.6858655181D-01
      0.4023432930D+02  0.2322408730D+00
      0.1282021290D+02  0.4690699481D+00
      0.4390437010D+01  0.3604551991D+00
 SP   3 1.00       0.000000000000
      0.1162636186D+02 -0.1149611817D+00  0.6757974388D-01
      0.2716279807D+01 -0.1691174786D+00  0.3239072959D+00
      0.7722183966D+00  0.1145851947D+01  0.7408951398D+00
 SP   1 1.00       0.000000000000
      0.2120314975D+00  0.1000000000D+01  0.1000000000D+01
 D   1 1.00       0.000000000000
      0.8000000000D+00  0.1000000000D+01
 ****
     12 0
 S   6 1.00       0.000000000000
      0.3047524880D+04  0.1834737132D-02
      0.4573695180D+03  0.1403732281D-01
      0.1039486850D+03  0.6884262226D-01
      0.2921015530D+02  0.2321844432D+00
      0.9286662960D+01  0.4679413484D+00
      0.3163926960D+01  0.3623119853D+00
 SP   3 1.00       0.000000000000
      0.7868272350D+01 -0.1193324198D+00  0.6899906659D-01
      0.1881288540D+01 -0.1608541517D+00  0.3164239610D+00
      0.5442492580D+00  0.1143456438D+01  0.7443082909D+00
 SP   1 1.00       0.000000000000
      0.1687144782D+00  0.1000000000D+01  0.1000000000D+01
 D   1 1.00       0.000000000000
      0.8000000000D+00  0.1000000000D+01
 ****
     13 0
 S   3 1.00       0.000000000000
      0.1873113696D+02  0.3349460434D-01
      0.2825394365D+01  0.2347269535D+00
      0.6401216923D+00  0.8137573261D+00
 S   1 1.00       0.000000000000
      0.1612777588D+00  0.1000000000D+01
 ****
     14 0
 S   6 1.00       0.000000000000
      0.5484671660D+04  0.1831074430D-02
      0.8252349460D+03  0.1395017220D-01
      0.1880469580D+03  0.6844507810D-01
      0.5296450000D+02  0.2327143360D+00
      0.1689757040D+02  0.4701928980D+00
      0.5799635340D+01  0.3585208530D+00
 SP   3 1.00       0.000000000000
      0.1553961625D+02 -0.1107775495D+00  0.7087426823D-01
      0.3599933586D+01 -0.1480262627D+00  0.3397528391D+00
      0.1013761750D+01  0.1130767015D+01  0.7271585773D+00
 SP   1 1.00       0.000000000000
      0.2700058226D+00  0.1000000000D+01  0.1000000000D+01
 D   1 1.00       0.000000000000
      0.8000000000D+00  0.1000000000D+01
 ****
     15 0
 S   6 1.00       0.000000000000
      0.3047524880D+04  0.1834737132D-02
      0.4573695180D+03  0.1403732281D-01
      0.1039486850D+03  0.6884262226D-01
      0.2921015530D+02  0.2321844432D+00
      0.9286662960D+01  0.4679413484D+00
      0.3163926960D+01  0.3623119853D+00
 SP   3 1.00       0.000000000000
      0.7868272350D+01 -0.1193324198D+00  0.6899906659D-01
      0.1881288540D+01 -0.1608541517D+00  0.3164239610D+00
      0.5442492580D+00  0.1143456438D+01  0.7443082909D+00
 SP   1 1.00       0.000000000000
      0.1687144782D+00  0.1000000000D+01  0.1000000000D+01
 D   1 1.00       0.000000000000
      0.8000000000D+00  0.1000000000D+01
 ****
     16 0
 S   3 1.00       0.000000000000
      0.1873113696D+02  0.3349460434D-01
      0.2825394365D+01  0.2347269535D+00
      0.6401216923D+00  0.8137573261D+00
 S   1 1.00       0.000000000000
      0.1612777588D+00  0.1000000000D+01
 ****
     17 0
 S   3 1.00       0.000000000000
      0.1873113696D+02  0.3349460434D-01
      0.2825394365D+01  0.2347269535D+00
      0.6401216923D+00  0.8137573261D+00
 S   1 1.00       0.000000000000
      0.1612777588D+00  0.1000000000D+01
 ****
     18 0
 S   3 1.00       0.000000000000
      0.1873113696D+02  0.3349460434D-01
      0.2825394365D+01  0.2347269535D+00
      0.6401216923D+00  0.8137573261D+00
 S   1 1.00       0.000000000000
      0.1612777588D+00  0.1000000000D+01
 ****
     19 0
 S   6 1.00       0.000000000000
      0.3047524880D+04  0.1834737132D-02
      0.4573695180D+03  0.1403732281D-01
      0.1039486850D+03  0.6884262226D-01
      0.2921015530D+02  0.2321844432D+00
      0.9286662960D+01  0.4679413484D+00
      0.3163926960D+01  0.3623119853D+00
 SP   3 1.00       0.000000000000
      0.7868272350D+01 -0.1193324198D+00  0.6899906659D-01
      0.1881288540D+01 -0.1608541517D+00  0.3164239610D+00
      0.5442492580D+00  0.1143456438D+01  0.7443082909D+00
 SP   1 1.00       0.000000000000
      0.1687144782D+00  0.1000000000D+01  0.1000000000D+01
 D   1 1.00       0.000000000000
      0.8000000000D+00  0.1000000000D+01
 ****
     20 0
 S   6 1.00       0.000000000000
      0.4173511460D+04  0.1834772160D-02
      0.6274579110D+03  0.1399462700D-01
      0.1429020930D+03  0.6858655181D-01
      0.4023432930D+02  0.2322408730D+00
      0.1282021290D+02  0.4690699481D+00
      0.4390437010D+01  0.3604551991D+00
 SP   3 1.00       0.000000000000
      0.1162636186D+02 -0.1149611817D+00  0.6757974388D-01
      0.2716279807D+01 -0.1691174786D+00  0.3239072959D+00
      0.7722183966D+00  0.1145851947D+01  0.7408951398D+00
 SP   1 1.00       0.000000000000
      0.2120314975D+00  0.1000000000D+01  0.1000000000D+01
 D   1 1.00       0.000000000000
      0.8000000000D+00  0.1000000000D+01
 ****
     21 0
 S   6 1.00       0.000000000000
      0.4173511460D+04  0.1834772160D-02
      0.6274579110D+03  0.1399462700D-01
      0.1429020930D+03  0.6858655181D-01
      0.4023432930D+02  0.2322408730D+00
      0.1282021290D+02  0.4690699481D+00
      0.4390437010D+01  0.3604551991D+00
 SP   3 1.00       0.000000000000
      0.1162636186D+02 -0.1149611817D+00  0.6757974388D-01
      0.2716279807D+01 -0.1691174786D+00  0.3239072959D+00
      0.7722183966D+00  0.1145851947D+01  0.7408951398D+00
 SP   1 1.00       0.000000000000
      0.2120314975D+00  0.1000000000D+01  0.1000000000D+01
 D   1 1.00       0.000000000000
      0.8000000000D+00  0.1000000000D+01
 ****
     22 0
 S   3 1.00       0.000000000000
      0.1873113696D+02  0.3349460434D-01
      0.2825394365D+01  0.2347269535D+00
      0.6401216923D+00  0.8137573261D+00
 S   1 1.00       0.000000000000
      0.1612777588D+00  0.1000000000D+01
 ****
     23 0
 S   3 1.00       0.000000000000
      0.1873113696D+02  0.3349460434D-01
      0.2825394365D+01  0.2347269535D+00
      0.6401216923D+00  0.8137573261D+00
 S   1 1.00       0.000000000000
      0.1612777588D+00  0.1000000000D+01
 ****
     24 0
 S   6 1.00       0.000000000000
      0.5484671660D+04  0.1831074430D-02
      0.8252349460D+03  0.1395017220D-01
      0.1880469580D+03  0.6844507810D-01
      0.5296450000D+02  0.2327143360D+00
      0.1689757040D+02  0.4701928980D+00
      0.5799635340D+01  0.3585208530D+00
 SP   3 1.00       0.000000000000
      0.1553961625D+02 -0.1107775495D+00  0.7087426823D-01
      0.3599933586D+01 -0.1480262627D+00  0.3397528391D+00
      0.1013761750D+01  0.1130767015D+01  0.7271585773D+00
 SP   1 1.00       0.000000000000
      0.2700058226D+00  0.1000000000D+01  0.1000000000D+01
 D   1 1.00       0.000000000000
      0.8000000000D+00  0.1000000000D+01
 ****
     25 0
 S   3 1.00       0.000000000000
      0.1873113696D+02  0.3349460434D-01
      0.2825394365D+01  0.2347269535D+00
      0.6401216923D+00  0.8137573261D+00
 S   1 1.00       0.000000000000
      0.1612777588D+00  0.1000000000D+01
 ****
     26 0
 S   3 1.00       0.000000000000
      0.2090800100D+02  0.3980531823D+00
      0.1390623400D+02 -0.6490522972D+00
      0.7328543000D+01 -0.7234533313D+00
 S   1 1.00       0.000000000000
      0.2136324000D+01  0.1000000000D+01
 S   1 1.00       0.000000000000
      0.8528220000D+00  0.1000000000D+01
 S   1 1.00       0.000000000000
      0.1066920000D+00  0.1000000000D+01
 S   1 1.00       0.000000000000
      0.3934600000D-01  0.1000000000D+01
 S   1 1.00       0.000000000000
      0.1000000000D-01  0.1000000000D+01
 P   2 1.00       0.000000000000
      0.6703444300D+02  0.2936999842D-01
      0.1326233400D+02 -0.1013625945D+01
 P   2 1.00       0.000000000000
      0.5690650000D+01  0.2038648887D+00
      0.2271940000D+01  0.8336445450D+00
 P   1 1.00       0.000000000000
      0.7889110000D+00  0.1000000000D+01
 P   1 1.00       0.000000000000
      0.1183550000D+00  0.1000000000D+01
 P   1 1.00       0.000000000000
      0.3059400000D-01  0.1000000000D+01
 D   4 1.00       0.000000000000
      0.3684052000D+02  0.3805602385D-01
      0.1117367500D+02  0.1889251184D+00
      0.3797564000D+01  0.4410512764D+00
      0.1239262000D+01  0.5656973546D+00
 D   1 1.00       0.000000000000
      0.3394000000D+00  0.1000000000D+01
 D   1 1.00       0.000000000000
      0.9000000000D-01  0.1000000000D+01
 F   1 1.00       0.000000000000
      0.2200000000D+01  0.1000000000D+01
 ****

 AO basis set (Overlap normalization):
 Atom C1       Shell     1 S   6     bf    1 -     1         -2.982091585113          2.874773874868         -0.055914145299
      0.3047524880D+04  0.1834737132D-02
      0.4573695180D+03  0.1403732281D-01
      0.1039486850D+03  0.6884262226D-01
      0.2921015530D+02  0.2321844432D+00
      0.9286662960D+01  0.4679413484D+00
      0.3163926960D+01  0.3623119853D+00
 Atom C1       Shell     2 SP   3    bf    2 -     5         -2.982091585113          2.874773874868         -0.055914145299
      0.7868272350D+01 -0.1193324198D+00  0.6899906659D-01
      0.1881288540D+01 -0.1608541517D+00  0.3164239610D+00
      0.5442492580D+00  0.1143456438D+01  0.7443082909D+00
 Atom C1       Shell     3 SP   1    bf    6 -     9         -2.982091585113          2.874773874868         -0.055914145299
      0.1687144782D+00  0.1000000000D+01  0.1000000000D+01
 Atom C1       Shell     4 D   1     bf   10 -    14         -2.982091585113          2.874773874868         -0.055914145299
      0.8000000000D+00  0.1000000000D+01
 Atom C2       Shell     5 S   6     bf   15 -    15         -0.388616588581          2.636425140508         -0.051900524088
      0.3047524880D+04  0.1834737132D-02
      0.4573695180D+03  0.1403732281D-01
      0.1039486850D+03  0.6884262226D-01
      0.2921015530D+02  0.2321844432D+00
      0.9286662960D+01  0.4679413484D+00
      0.3163926960D+01  0.3623119853D+00
 Atom C2       Shell     6 SP   3    bf   16 -    19         -0.388616588581          2.636425140508         -0.051900524088
      0.7868272350D+01 -0.1193324198D+00  0.6899906659D-01
      0.1881288540D+01 -0.1608541517D+00  0.3164239610D+00
      0.5442492580D+00  0.1143456438D+01  0.7443082909D+00
 Atom C2       Shell     7 SP   1    bf   20 -    23         -0.388616588581          2.636425140508         -0.051900524088
      0.1687144782D+00  0.1000000000D+01  0.1000000000D+01
 Atom C2       Shell     8 D   1     bf   24 -    28         -0.388616588581          2.636425140508         -0.051900524088
      0.8000000000D+00  0.1000000000D+01
 Atom C3       Shell     9 S   6     bf   29 -    29          0.767513390273          0.201818204502         -0.040022704627
      0.3047524880D+04  0.1834737132D-02
      0.4573695180D+03  0.1403732281D-01
      0.1039486850D+03  0.6884262226D-01
      0.2921015530D+02  0.2321844432D+00
      0.9286662960D+01  0.4679413484D+00
      0.3163926960D+01  0.3623119853D+00
 Atom C3       Shell    10 SP   3    bf   30 -    33          0.767513390273          0.201818204502         -0.040022704627
      0.7868272350D+01 -0.1193324198D+00  0.6899906659D-01
      0.1881288540D+01 -0.1608541517D+00  0.3164239610D+00
      0.5442492580D+00  0.1143456438D+01  0.7443082909D+00
 Atom C3       Shell    11 SP   1    bf   34 -    37          0.767513390273          0.201818204502         -0.040022704627
      0.1687144782D+00  0.1000000000D+01  0.1000000000D+01
 Atom C3       Shell    12 D   1     bf   38 -    42          0.767513390273          0.201818204502         -0.040022704627
      0.8000000000D+00  0.1000000000D+01
 Atom C4       Shell    13 S   6     bf   43 -    43         -0.852528300602         -1.945551564954         -0.037363009270
      0.3047524880D+04  0.1834737132D-02
      0.4573695180D+03  0.1403732281D-01
      0.1039486850D+03  0.6884262226D-01
      0.2921015530D+02  0.2321844432D+00
      0.9286662960D+01  0.4679413484D+00
      0.3163926960D+01  0.3623119853D+00
 Atom C4       Shell    14 SP   3    bf   44 -    47         -0.852528300602         -1.945551564954         -0.037363009270
      0.7868272350D+01 -0.1193324198D+00  0.6899906659D-01
      0.1881288540D+01 -0.1608541517D+00  0.3164239610D+00
      0.5442492580D+00  0.1143456438D+01  0.7443082909D+00
 Atom C4       Shell    15 SP   1    bf   48 -    51         -0.852528300602         -1.945551564954         -0.037363009270
      0.1687144782D+00  0.1000000000D+01  0.1000000000D+01
 Atom C4       Shell    16 D   1     bf   52 -    56         -0.852528300602         -1.945551564954         -0.037363009270
      0.8000000000D+00  0.1000000000D+01
 Atom C5       Shell    17 S   6     bf   57 -    57         -3.450287462285         -1.721109444294         -0.036501770999
      0.3047524880D+04  0.1834737132D-02
      0.4573695180D+03  0.1403732281D-01
      0.1039486850D+03  0.6884262226D-01
      0.2921015530D+02  0.2321844432D+00
      0.9286662960D+01  0.4679413484D+00
      0.3163926960D+01  0.3623119853D+00
 Atom C5       Shell    18 SP   3    bf   58 -    61         -3.450287462285         -1.721109444294         -0.036501770999
      0.7868272350D+01 -0.1193324198D+00  0.6899906659D-01
      0.1881288540D+01 -0.1608541517D+00  0.3164239610D+00
      0.5442492580D+00  0.1143456438D+01  0.7443082909D+00
 Atom C5       Shell    19 SP   1    bf   62 -    65         -3.450287462285         -1.721109444294         -0.036501770999
      0.1687144782D+00  0.1000000000D+01  0.1000000000D+01
 Atom C5       Shell    20 D   1     bf   66 -    70         -3.450287462285         -1.721109444294         -0.036501770999
      0.8000000000D+00  0.1000000000D+01
 Atom C6       Shell    21 S   6     bf   71 -    71         -4.575396676022          0.714357921538         -0.043139063140
      0.3047524880D+04  0.1834737132D-02
      0.4573695180D+03  0.1403732281D-01
      0.1039486850D+03  0.6884262226D-01
      0.2921015530D+02  0.2321844432D+00
      0.9286662960D+01  0.4679413484D+00
      0.3163926960D+01  0.3623119853D+00
 Atom C6       Shell    22 SP   3    bf   72 -    75         -4.575396676022          0.714357921538         -0.043139063140
      0.7868272350D+01 -0.1193324198D+00  0.6899906659D-01
      0.1881288540D+01 -0.1608541517D+00  0.3164239610D+00
      0.5442492580D+00  0.1143456438D+01  0.7443082909D+00
 Atom C6       Shell    23 SP   1    bf   76 -    79         -4.575396676022          0.714357921538         -0.043139063140
      0.1687144782D+00  0.1000000000D+01  0.1000000000D+01
 Atom C6       Shell    24 D   1     bf   80 -    84         -4.575396676022          0.714357921538         -0.043139063140
      0.8000000000D+00  0.1000000000D+01
 Atom H7       Shell    25 S   3     bf   85 -    85         -3.814304254600          4.763882548646         -0.068182208467
      0.1873113696D+02  0.3349460434D-01
      0.2825394365D+01  0.2347269535D+00
      0.6401216923D+00  0.8137573261D+00
 Atom H7       Shell    26 S   1     bf   86 -    86         -3.814304254600          4.763882548646         -0.068182208467
      0.1612777588D+00  0.1000000000D+01
 Atom H8       Shell    27 S   3     bf   87 -    87          0.752036615528          4.342349685832         -0.058477742946
      0.1873113696D+02  0.3349460434D-01
      0.2825394365D+01  0.2347269535D+00
      0.6401216923D+00  0.8137573261D+00
 Atom H8       Shell    28 S   1     bf   88 -    88          0.752036615528          4.342349685832         -0.058477742946
      0.1612777588D+00  0.1000000000D+01
 Atom H9       Shell    29 S   3     bf   89 -    89         -0.077998084911         -3.855462560396         -0.039129031252
      0.1873113696D+02  0.3349460434D-01
      0.2825394365D+01  0.2347269535D+00
      0.6401216923D+00  0.8137573261D+00
 Atom H9       Shell    30 S   1     bf   90 -    90         -0.077998084911         -3.855462560396         -0.039129031252
      0.1612777588D+00  0.1000000000D+01
 Atom H10      Shell    31 S   3     bf   91 -    91         -4.632449838326         -3.403600683164         -0.024850270593
      0.1873113696D+02  0.3349460434D-01
      0.2825394365D+01  0.2347269535D+00
      0.6401216923D+00  0.8137573261D+00
 Atom H10      Shell    32 S   1     bf   92 -    92         -4.632449838326         -3.403600683164         -0.024850270593
      0.1612777588D+00  0.1000000000D+01
 Atom N11      Shell    33 S   6     bf   93 -    93         -7.145159434414          1.105072217361         -0.037920673667
      0.4173511460D+04  0.1834772160D-02
      0.6274579110D+03  0.1399462700D-01
      0.1429020930D+03  0.6858655181D-01
      0.4023432930D+02  0.2322408730D+00
      0.1282021290D+02  0.4690699481D+00
      0.4390437010D+01  0.3604551991D+00
 Atom N11      Shell    34 SP   3    bf   94 -    97         -7.145159434414          1.105072217361         -0.037920673667
      0.1162636186D+02 -0.1149611817D+00  0.6757974388D-01
      0.2716279807D+01 -0.1691174786D+00  0.3239072959D+00
      0.7722183966D+00  0.1145851947D+01  0.7408951398D+00
 Atom N11      Shell    35 SP   1    bf   98 -   101         -7.145159434414          1.105072217361         -0.037920673667
      0.2120314975D+00  0.1000000000D+01  0.1000000000D+01
 Atom N11      Shell    36 D   1     bf  102 -   106         -7.145159434414          1.105072217361         -0.037920673667
      0.8000000000D+00  0.1000000000D+01
 Atom C12      Shell    37 S   6     bf  107 -   107         -9.123457249621         -0.689400038012          0.014423003801
      0.3047524880D+04  0.1834737132D-02
      0.4573695180D+03  0.1403732281D-01
      0.1039486850D+03  0.6884262226D-01
      0.2921015530D+02  0.2321844432D+00
      0.9286662960D+01  0.4679413484D+00
      0.3163926960D+01  0.3623119853D+00
 Atom C12      Shell    38 SP   3    bf  108 -   111         -9.123457249621         -0.689400038012          0.014423003801
      0.7868272350D+01 -0.1193324198D+00  0.6899906659D-01
      0.1881288540D+01 -0.1608541517D+00  0.3164239610D+00
      0.5442492580D+00  0.1143456438D+01  0.7443082909D+00
 Atom C12      Shell    39 SP   1    bf  112 -   115         -9.123457249621         -0.689400038012          0.014423003801
      0.1687144782D+00  0.1000000000D+01  0.1000000000D+01
 Atom C12      Shell    40 D   1     bf  116 -   120         -9.123457249621         -0.689400038012          0.014423003801
      0.8000000000D+00  0.1000000000D+01
 Atom H13      Shell    41 S   3     bf  121 -   121         -7.727684674619          2.956158377982         -0.056120618972
      0.1873113696D+02  0.3349460434D-01
      0.2825394365D+01  0.2347269535D+00
      0.6401216923D+00  0.8137573261D+00
 Atom H13      Shell    42 S   1     bf  122 -   122         -7.727684674619          2.956158377982         -0.056120618972
      0.1612777588D+00  0.1000000000D+01
 Atom O14      Shell    43 S   6     bf  123 -   123         -8.665837670435         -2.955577824317          0.045775020062
      0.5484671660D+04  0.1831074430D-02
      0.8252349460D+03  0.1395017220D-01
      0.1880469580D+03  0.6844507810D-01
      0.5296450000D+02  0.2327143360D+00
      0.1689757040D+02  0.4701928980D+00
      0.5799635340D+01  0.3585208530D+00
 Atom O14      Shell    44 SP   3    bf  124 -   127         -8.665837670435         -2.955577824317          0.045775020062
      0.1553961625D+02 -0.1107775495D+00  0.7087426823D-01
      0.3599933586D+01 -0.1480262627D+00  0.3397528391D+00
      0.1013761750D+01  0.1130767015D+01  0.7271585773D+00
 Atom O14      Shell    45 SP   1    bf  128 -   131         -8.665837670435         -2.955577824317          0.045775020062
      0.2700058226D+00  0.1000000000D+01  0.1000000000D+01
 Atom O14      Shell    46 D   1     bf  132 -   136         -8.665837670435         -2.955577824317          0.045775020062
      0.8000000000D+00  0.1000000000D+01
 Atom C15      Shell    47 S   6     bf  137 -   137        -11.744653771079          0.380314234266          0.075612982378
      0.3047524880D+04  0.1834737132D-02
      0.4573695180D+03  0.1403732281D-01
      0.1039486850D+03  0.6884262226D-01
      0.2921015530D+02  0.2321844432D+00
      0.9286662960D+01  0.4679413484D+00
      0.3163926960D+01  0.3623119853D+00
 Atom C15      Shell    48 SP   3    bf  138 -   141        -11.744653771079          0.380314234266          0.075612982378
      0.7868272350D+01 -0.1193324198D+00  0.6899906659D-01
      0.1881288540D+01 -0.1608541517D+00  0.3164239610D+00
      0.5442492580D+00  0.1143456438D+01  0.7443082909D+00
 Atom C15      Shell    49 SP   1    bf  142 -   145        -11.744653771079          0.380314234266          0.075612982378
      0.1687144782D+00  0.1000000000D+01  0.1000000000D+01
 Atom C15      Shell    50 D   1     bf  146 -   150        -11.744653771079          0.380314234266          0.075612982378
      0.8000000000D+00  0.1000000000D+01
 Atom H16      Shell    51 S   3     bf  151 -   151        -12.164048906977          1.052551486774          2.005044215618
      0.1873113696D+02  0.3349460434D-01
      0.2825394365D+01  0.2347269535D+00
      0.6401216923D+00  0.8137573261D+00
 Atom H16      Shell    52 S   1     bf  152 -   152        -12.164048906977          1.052551486774          2.005044215618
      0.1612777588D+00  0.1000000000D+01
 Atom H17      Shell    53 S   3     bf  153 -   153        -11.964330396010          1.968815847624         -1.245393906095
      0.1873113696D+02  0.3349460434D-01
      0.2825394365D+01  0.2347269535D+00
      0.6401216923D+00  0.8137573261D+00
 Atom H17      Shell    54 S   1     bf  154 -   154        -11.964330396010          1.968815847624         -1.245393906095
      0.1612777588D+00  0.1000000000D+01
 Atom H18      Shell    55 S   3     bf  155 -   155        -13.097739795415         -1.112567478891         -0.398006678880
      0.1873113696D+02  0.3349460434D-01
      0.2825394365D+01  0.2347269535D+00
      0.6401216923D+00  0.8137573261D+00
 Atom H18      Shell    56 S   1     bf  156 -   156        -13.097739795415         -1.112567478891         -0.398006678880
      0.1612777588D+00  0.1000000000D+01
 Atom C19      Shell    57 S   6     bf  157 -   157          3.458883799511         -0.173271159536         -0.028986501704
      0.3047524880D+04  0.1834737132D-02
      0.4573695180D+03  0.1403732281D-01
      0.1039486850D+03  0.6884262226D-01
      0.2921015530D+02  0.2321844432D+00
      0.9286662960D+01  0.4679413484D+00
      0.3163926960D+01  0.3623119853D+00
 Atom C19      Shell    58 SP   3    bf  158 -   161          3.458883799511         -0.173271159536         -0.028986501704
      0.7868272350D+01 -0.1193324198D+00  0.6899906659D-01
      0.1881288540D+01 -0.1608541517D+00  0.3164239610D+00
      0.5442492580D+00  0.1143456438D+01  0.7443082909D+00
 Atom C19      Shell    59 SP   1    bf  162 -   165          3.458883799511         -0.173271159536         -0.028986501704
      0.1687144782D+00  0.1000000000D+01  0.1000000000D+01
 Atom C19      Shell    60 D   1     bf  166 -   170          3.458883799511         -0.173271159536         -0.028986501704
      0.8000000000D+00  0.1000000000D+01
 Atom N20      Shell    61 S   6     bf  171 -   171          5.383565062294          1.431410196388          0.010788067478
      0.4173511460D+04  0.1834772160D-02
      0.6274579110D+03  0.1399462700D-01
      0.1429020930D+03  0.6858655181D-01
      0.4023432930D+02  0.2322408730D+00
      0.1282021290D+02  0.4690699481D+00
      0.4390437010D+01  0.3604551991D+00
 Atom N20      Shell    62 SP   3    bf  172 -   175          5.383565062294          1.431410196388          0.010788067478
      0.1162636186D+02 -0.1149611817D+00  0.6757974388D-01
      0.2716279807D+01 -0.1691174786D+00  0.3239072959D+00
      0.7722183966D+00  0.1145851947D+01  0.7408951398D+00
 Atom N20      Shell    63 SP   1    bf  176 -   179          5.383565062294          1.431410196388          0.010788067478
      0.2120314975D+00  0.1000000000D+01  0.1000000000D+01
 Atom N20      Shell    64 D   1     bf  180 -   184          5.383565062294          1.431410196388          0.010788067478
      0.8000000000D+00  0.1000000000D+01
 Atom N21      Shell    65 S   6     bf  185 -   185          4.646354767521         -2.665831644723         -0.055761363857
      0.4173511460D+04  0.1834772160D-02
      0.6274579110D+03  0.1399462700D-01
      0.1429020930D+03  0.6858655181D-01
      0.4023432930D+02  0.2322408730D+00
      0.1282021290D+02  0.4690699481D+00
      0.4390437010D+01  0.3604551991D+00
 Atom N21      Shell    66 SP   3    bf  186 -   189          4.646354767521         -2.665831644723         -0.055761363857
      0.1162636186D+02 -0.1149611817D+00  0.6757974388D-01
      0.2716279807D+01 -0.1691174786D+00  0.3239072959D+00
      0.7722183966D+00  0.1145851947D+01  0.7408951398D+00
 Atom N21      Shell    67 SP   1    bf  190 -   193          4.646354767521         -2.665831644723         -0.055761363857
      0.2120314975D+00  0.1000000000D+01  0.1000000000D+01
 Atom N21      Shell    68 D   1     bf  194 -   198          4.646354767521         -2.665831644723         -0.055761363857
      0.8000000000D+00  0.1000000000D+01
 Atom H22      Shell    69 S   3     bf  199 -   199          4.158725875452         -3.750183045231          1.491751961238
      0.1873113696D+02  0.3349460434D-01
      0.2825394365D+01  0.2347269535D+00
      0.6401216923D+00  0.8137573261D+00
 Atom H22      Shell    70 S   1     bf  200 -   200          4.158725875452         -3.750183045231          1.491751961238
      0.1612777588D+00  0.1000000000D+01
 Atom H23      Shell    71 S   3     bf  201 -   201          4.208833993907         -3.692244387258         -1.657561893928
      0.1873113696D+02  0.3349460434D-01
      0.2825394365D+01  0.2347269535D+00
      0.6401216923D+00  0.8137573261D+00
 Atom H23      Shell    72 S   1     bf  202 -   202          4.208833993907         -3.692244387258         -1.657561893928
      0.1612777588D+00  0.1000000000D+01
 Atom O24      Shell    73 S   6     bf  203 -   203          4.853069944067          3.951950948019          0.054853575346
      0.5484671660D+04  0.1831074430D-02
      0.8252349460D+03  0.1395017220D-01
      0.1880469580D+03  0.6844507810D-01
      0.5296450000D+02  0.2327143360D+00
      0.1689757040D+02  0.4701928980D+00
      0.5799635340D+01  0.3585208530D+00
 Atom O24      Shell    74 SP   3    bf  204 -   207          4.853069944067          3.951950948019          0.054853575346
      0.1553961625D+02 -0.1107775495D+00  0.7087426823D-01
      0.3599933586D+01 -0.1480262627D+00  0.3397528391D+00
      0.1013761750D+01  0.1130767015D+01  0.7271585773D+00
 Atom O24      Shell    75 SP   1    bf  208 -   211          4.853069944067          3.951950948019          0.054853575346
      0.2700058226D+00  0.1000000000D+01  0.1000000000D+01
 Atom O24      Shell    76 D   1     bf  212 -   216          4.853069944067          3.951950948019          0.054853575346
      0.8000000000D+00  0.1000000000D+01
 Atom H25      Shell    77 S   3     bf  217 -   217          6.502228035178          4.834925957387          0.069964346472
      0.1873113696D+02  0.3349460434D-01
      0.2825394365D+01  0.2347269535D+00
      0.6401216923D+00  0.8137573261D+00
 Atom H25      Shell    78 S   1     bf  218 -   218          6.502228035178          4.834925957387          0.069964346472
      0.1612777588D+00  0.1000000000D+01
 Atom Co26     Shell    79 S   3     bf  219 -   219          8.204050264261         -0.920011449460          0.036257083428
      0.2090800100D+02  0.3980531823D+00
      0.1390623400D+02 -0.6490522972D+00
      0.7328543000D+01 -0.7234533313D+00
 Atom Co26     Shell    80 S   1     bf  220 -   220          8.204050264261         -0.920011449460          0.036257083428
      0.2136324000D+01  0.1000000000D+01
 Atom Co26     Shell    81 S   1     bf  221 -   221          8.204050264261         -0.920011449460          0.036257083428
      0.8528220000D+00  0.1000000000D+01
 Atom Co26     Shell    82 S   1     bf  222 -   222          8.204050264261         -0.920011449460          0.036257083428
      0.1066920000D+00  0.1000000000D+01
 Atom Co26     Shell    83 S   1     bf  223 -   223          8.204050264261         -0.920011449460          0.036257083428
      0.3934600000D-01  0.1000000000D+01
 Atom Co26     Shell    84 S   1     bf  224 -   224          8.204050264261         -0.920011449460          0.036257083428
      0.1000000000D-01  0.1000000000D+01
 Atom Co26     Shell    85 P   2     bf  225 -   227          8.204050264261         -0.920011449460          0.036257083428
      0.6703444300D+02  0.2936999842D-01
      0.1326233400D+02 -0.1013625945D+01
 Atom Co26     Shell    86 P   2     bf  228 -   230          8.204050264261         -0.920011449460          0.036257083428
      0.5690650000D+01  0.2038648887D+00
      0.2271940000D+01  0.8336445450D+00
 Atom Co26     Shell    87 P   1     bf  231 -   233          8.204050264261         -0.920011449460          0.036257083428
      0.7889110000D+00  0.1000000000D+01
 Atom Co26     Shell    88 P   1     bf  234 -   236          8.204050264261         -0.920011449460          0.036257083428
      0.1183550000D+00  0.1000000000D+01
 Atom Co26     Shell    89 P   1     bf  237 -   239          8.204050264261         -0.920011449460          0.036257083428
      0.3059400000D-01  0.1000000000D+01
 Atom Co26     Shell    90 D   4     bf  240 -   244          8.204050264261         -0.920011449460          0.036257083428
      0.3684052000D+02  0.3805602385D-01
      0.1117367500D+02  0.1889251184D+00
      0.3797564000D+01  0.4410512764D+00
      0.1239262000D+01  0.5656973546D+00
 Atom Co26     Shell    91 D   1     bf  245 -   249          8.204050264261         -0.920011449460          0.036257083428
      0.3394000000D+00  0.1000000000D+01
 Atom Co26     Shell    92 D   1     bf  250 -   254          8.204050264261         -0.920011449460          0.036257083428
      0.9000000000D-01  0.1000000000D+01
 Atom Co26     Shell    93 F   1     bf  255 -   261          8.204050264261         -0.920011449460          0.036257083428
      0.2200000000D+01  0.1000000000D+01
 There are   281 symmetry adapted cartesian basis functions of A   symmetry.
 There are   261 symmetry adapted basis functions of A   symmetry.
   261 basis functions,   511 primitive gaussians,   281 cartesian basis functions
    59 alpha electrons       58 beta electrons
       nuclear repulsion energy      1045.9767642597 Hartrees.
 IExCor=  608 DFT=T Ex=PW91 Corr=PW91 ExCW=0 ScaHFX=  0.000000
 ScaDFX=  1.000000  1.000000  1.000000  1.000000 ScalE2=  1.000000  1.000000
 IRadAn=      0 IRanWt=     -1 IRanGd=            0 ICorTp=0 IEmpDi=  4
 NAtoms=   26 NActive=   26 NUniq=   26 SFac= 1.00D+00 NAtFMM=   60 NAOKFM=F Big=F
 Integral buffers will be    131072 words long.
 Regular integral format.
 Two-electron integral symmetry is turned on.
 Leave Link  301 at Tue Mar 10 22:23:54 2020, MaxMem=   268435456 cpu:         2.4
 (Enter /opt/gaussian/g09/l302.exe)
 NPDir=0 NMtPBC=     1 NCelOv=     1 NCel=       1 NClECP=     1 NCelD=      1
         NCelK=      1 NCelE2=     1 NClLst=     1 CellRange=     0.0.
 One-electron integrals computed using PRISM.
   1 Symmetry operations used in ECPInt.
 ECPInt:  NShTT=    4371 NPrTT=   24606 LenC2=    3797 LenP2D=   13590.
 LDataN:  DoStor=T MaxTD1= 6 Len=  172
 NBasis=   261 RedAO= T EigKep=  4.38D-04  NBF=   261
 NBsUse=   261 1.00D-06 EigRej= -1.00D+00 NBFU=   261
 Precomputing XC quadrature grid using
 IXCGrd= 4 IRadAn=           0 IRanWt=          -1 IRanGd=           0 AccXCQ= 0.00D+00.
 Generated NRdTot=       0 NPtTot=           0 NUsed=           0 NTot=          32
 NSgBfM=   276   276   276   276   276 MxSgAt=    26 MxSgA2=    26.
 Leave Link  302 at Tue Mar 10 22:23:57 2020, MaxMem=   268435456 cpu:        51.0
 (Enter /opt/gaussian/g09/l308.exe)
 Leave Link  308 at Tue Mar 10 22:23:57 2020, MaxMem=   268435456 cpu:         6.7
 (Enter /opt/gaussian/g09/l303.exe)
 DipDrv:  MaxL=1.
 Leave Link  303 at Tue Mar 10 22:23:58 2020, MaxMem=   268435456 cpu:         3.7
 (Enter /opt/gaussian/g09/l401.exe)
 ExpMin= 1.00D-02 ExpMax= 5.48D+03 ExpMxC= 8.25D+02 IAcc=3 IRadAn=         5 AccDes= 0.00D+00
 Harris functional with IExCor=  608 and IRadAn=       5 diagonalized for initial guess.
 HarFok:  IExCor=  608 AccDes= 0.00D+00 IRadAn=         5 IDoV= 1 UseB2=F ITyADJ=14
 ICtDFT=  3500011 ScaDFX=  1.000000  1.000000  1.000000  1.000000
 FoFCou: FMM=F IPFlag=           0 FMFlag=      100000 FMFlg1=           0
         NFxFlg=           0 DoJE=T BraDBF=F KetDBF=T FulRan=T
         wScrn=  0.000000 ICntrl=     500 IOpCl=  0 I1Cent=   200000004 NGrid=           0
         NMat0=    1 NMatS0=      1 NMatT0=    0 NMatD0=    1 NMtDS0=    0 NMtDT0=    0
 Petite list used in FoFCou.
 Harris En= -809.678159058724    
 JPrj=0 DoOrth=F DoCkMO=F.
 Initial guess <Sx>= 0.0000 <Sy>= 0.0000 <Sz>= 0.5000 <S**2>= 0.7500 S= 0.5000
 Leave Link  401 at Tue Mar 10 22:24:01 2020, MaxMem=   268435456 cpu:        51.6
 (Enter /opt/gaussian/g09/l502.exe)
 UHF open shell SCF:
 Using DIIS extrapolation, IDIIS=  1040.
 Integral symmetry usage will be decided dynamically.
 IVT=      263145 IEndB=      263145 NGot=   268435456 MDV=   268268194
 LenX=   268268194 LenY=   268188792
 Requested convergence on RMS density matrix=1.00D-07 within 128 cycles.
 Requested convergence on MAX density matrix=1.00D-05.
 Requested convergence on             energy=1.00D-05.
 No special actions if energy rises.
 Fock matrices will be formed incrementally for  20 cycles.

 Cycle   1  Pass 1  IDiag  1:
 FoFJK:  IHMeth= 1 ICntrl=     500 DoSepK=F KAlg= 0 I1Cent=   0 FoldK=F
 IRaf= 780000000 NMat=   1 IRICut=       1 DoRegI=T DoRafI=F ISym2E= 0.
 FoFCou: FMM=F IPFlag=           0 FMFlag=      100000 FMFlg1=           0
         NFxFlg=           0 DoJE=T BraDBF=F KetDBF=F FulRan=T
         wScrn=  0.000000 ICntrl=     500 IOpCl=  0 I1Cent=           0 NGrid=           0
         NMat0=    1 NMatS0=      1 NMatT0=    0 NMatD0=    1 NMtDS0=    0 NMtDT0=    0
 Symmetry not used in FoFCou.
 E= -808.920411442449    
 DIIS: error= 3.24D-02 at cycle   1 NSaved=   1.
 NSaved= 1 IEnMin= 1 EnMin= -808.920411442449     IErMin= 1 ErrMin= 3.24D-02
 ErrMax= 3.24D-02  0.00D+00 EMaxC= 1.00D-01 BMatC= 1.29D+00 BMatP= 1.29D+00
 IDIUse=3 WtCom= 6.76D-01 WtEn= 3.24D-01
 Coeff-Com:  0.100D+01
 Coeff-En:   0.100D+01
 Coeff:      0.100D+01
 Gap=     0.024 Goal=   None    Shift=    0.000
 Gap=    -0.035 Goal=   None    Shift=    0.000
 GapD=   -0.035 DampG=0.250 DampE=0.250 DampFc=0.1250 IDamp=-1.
 Damping current iteration by 1.25D-01
 RMSDP=1.30D-02 MaxDP=6.47D-01              OVMax= 9.80D-01

 Cycle   2  Pass 1  IDiag  1:
 RMSU=  1.61D-03    CP:  9.92D-01
 E= -808.877489029856     Delta-E=        0.042922412593 Rises=F Damp=T
 DIIS: error= 2.29D-02 at cycle   2 NSaved=   2.
 NSaved= 2 IEnMin= 1 EnMin= -808.920411442449     IErMin= 2 ErrMin= 2.29D-02
 ErrMax= 2.29D-02  0.00D+00 EMaxC= 1.00D-01 BMatC= 6.04D-01 BMatP= 1.29D+00
 IDIUse=3 WtCom= 7.71D-01 WtEn= 2.29D-01
 Coeff-Com: -0.354D-01 0.104D+01
 Coeff-En:   0.575D+00 0.425D+00
 Coeff:      0.105D+00 0.895D+00
 Gap=    -0.253 Goal=   None    Shift=    0.000
 Gap=     0.313 Goal=   None    Shift=    0.000
 RMSDP=9.83D-03 MaxDP=6.76D-01 DE= 4.29D-02 OVMax= 9.99D-01

 Cycle   3  Pass 1  IDiag  1:
 RMSU=  9.62D-03    CP:  9.17D-01  1.77D+00
 E= -788.444539477604     Delta-E=       20.432949552252 Rises=F Damp=F
 DIIS: error= 2.50D-01 at cycle   3 NSaved=   3.
 NSaved= 3 IEnMin= 1 EnMin= -808.920411442449     IErMin= 2 ErrMin= 2.29D-02
 ErrMax= 2.50D-01  0.00D+00 EMaxC= 1.00D-01 BMatC= 4.89D+01 BMatP= 6.04D-01
 IDIUse=2 WtCom= 0.00D+00 WtEn= 1.00D+00
 EnCoef did    12 forward-backward iterations
 Coeff-En:   0.522D+00 0.466D+00 0.119D-01
 Coeff:      0.522D+00 0.466D+00 0.119D-01
 Gap=    -0.142 Goal=   None    Shift=    0.000
 Gap=     0.154 Goal=   None    Shift=    0.000
 RMSDP=8.37D-03 MaxDP=5.73D-01 DE= 2.04D+01 OVMax= 9.38D-01

 Cycle   4  Pass 1  IDiag  1:
 RMSU=  6.01D-03    CP:  9.48D-01  2.22D+00  4.03D-01
 E= -805.395478103322     Delta-E=      -16.950938625718 Rises=F Damp=F
 DIIS: error= 1.50D-01 at cycle   4 NSaved=   4.
 NSaved= 4 IEnMin= 1 EnMin= -808.920411442449     IErMin= 2 ErrMin= 2.29D-02
 ErrMax= 1.50D-01  0.00D+00 EMaxC= 1.00D-01 BMatC= 1.78D+01 BMatP= 6.04D-01
 IDIUse=2 WtCom= 0.00D+00 WtEn= 1.00D+00
 EnCoef did     3 forward-backward iterations
 Coeff-En:   0.507D+00 0.391D+00 0.000D+00 0.102D+00
 Coeff:      0.507D+00 0.391D+00 0.000D+00 0.102D+00
 Gap=    -0.089 Goal=   None    Shift=    0.000
 Gap=    -0.081 Goal=   None    Shift=    0.000
 RMSDP=7.30D-03 MaxDP=6.58D-01 DE=-1.70D+01 OVMax= 9.70D-01

 Cycle   5  Pass 1  IDiag  1:
 RMSU=  5.06D-03    CP:  9.58D-01  2.39D+00  4.31D-02  3.45D-01
 E= -805.040724395715     Delta-E=        0.354753707608 Rises=F Damp=F
 DIIS: error= 1.27D-01 at cycle   5 NSaved=   5.
 NSaved= 5 IEnMin= 1 EnMin= -808.920411442449     IErMin= 2 ErrMin= 2.29D-02
 ErrMax= 1.27D-01  0.00D+00 EMaxC= 1.00D-01 BMatC= 1.41D+01 BMatP= 6.04D-01
 IDIUse=2 WtCom= 0.00D+00 WtEn= 1.00D+00
 EnCoef did   100 forward-backward iterations
 Coeff-En:   0.703D+00 0.149D-01 0.000D+00 0.133D+00 0.150D+00
 Coeff:      0.703D+00 0.149D-01 0.000D+00 0.133D+00 0.150D+00
 Gap=     0.097 Goal=   None    Shift=    0.000
 Gap=    -0.023 Goal=   None    Shift=    0.000
 RMSDP=5.97D-03 MaxDP=5.89D-01 DE= 3.55D-01 OVMax= 9.97D-01

 Cycle   6  Pass 1  IDiag  1:
 RMSU=  2.58D-03    CP:  9.81D-01  7.14D-01  1.26D-01  2.89D-01  1.02D-01
 E= -808.970715262671     Delta-E=       -3.929990866956 Rises=F Damp=F
 DIIS: error= 6.13D-02 at cycle   6 NSaved=   6.
 NSaved= 6 IEnMin= 6 EnMin= -808.970715262671     IErMin= 2 ErrMin= 2.29D-02
 ErrMax= 6.13D-02  0.00D+00 EMaxC= 1.00D-01 BMatC= 1.82D+00 BMatP= 6.04D-01
 IDIUse=2 WtCom= 0.00D+00 WtEn= 1.00D+00
 EnCoef did   100 forward-backward iterations
 Coeff-En:   0.341D+00 0.804D-02 0.000D+00 0.000D+00 0.128D+00 0.524D+00
 Coeff:      0.341D+00 0.804D-02 0.000D+00 0.000D+00 0.128D+00 0.524D+00
 Gap=     0.000 Goal=   None    Shift=    0.000
 Gap=     0.012 Goal=   None    Shift=    0.000
 RMSDP=5.63D-03 MaxDP=6.04D-01 DE=-3.93D+00 OVMax= 9.68D-01

 Cycle   7  Pass 1  IDiag  1:
 RMSU=  2.76D-03    CP:  9.69D-01  1.49D+00 -2.58D-02  1.90D-01  7.07D-01
                    CP: -2.65D-01
 E= -806.294690110505     Delta-E=        2.676025152166 Rises=F Damp=F
 DIIS: error= 1.27D-01 at cycle   7 NSaved=   7.
 NSaved= 7 IEnMin= 6 EnMin= -808.970715262671     IErMin= 2 ErrMin= 2.29D-02
 ErrMax= 1.27D-01  0.00D+00 EMaxC= 1.00D-01 BMatC= 1.16D+01 BMatP= 6.04D-01
 IDIUse=2 WtCom= 0.00D+00 WtEn= 1.00D+00
 EnCoef did     2 forward-backward iterations
 Coeff-En:   0.189D+00 0.000D+00 0.000D+00 0.000D+00 0.000D+00 0.625D+00
 Coeff-En:   0.185D+00
 Coeff:      0.189D+00 0.000D+00 0.000D+00 0.000D+00 0.000D+00 0.625D+00
 Coeff:      0.185D+00
 Gap=    -0.043 Goal=   None    Shift=    0.000
 Gap=    -0.043 Goal=   None    Shift=    0.000
 RMSDP=4.63D-03 MaxDP=4.59D-01 DE= 2.68D+00 OVMax= 9.81D-01

 Cycle   8  Pass 1  IDiag  1:
 RMSU=  3.05D-03    CP:  9.83D-01  8.04D-01  3.14D-02  2.56D-01  2.42D-01
                    CP:  2.15D-01  3.49D-01
 E= -808.768996535545     Delta-E=       -2.474306425040 Rises=F Damp=F
 DIIS: error= 6.60D-02 at cycle   8 NSaved=   8.
 NSaved= 8 IEnMin= 6 EnMin= -808.970715262671     IErMin= 2 ErrMin= 2.29D-02
 ErrMax= 6.60D-02  0.00D+00 EMaxC= 1.00D-01 BMatC= 3.08D+00 BMatP= 6.04D-01
 IDIUse=2 WtCom= 0.00D+00 WtEn= 1.00D+00
 EnCoef did    11 forward-backward iterations
 Coeff-En:   0.359D-02 0.000D+00 0.000D+00 0.000D+00 0.000D+00 0.621D+00
 Coeff-En:   0.891D-01 0.286D+00
 Coeff:      0.359D-02 0.000D+00 0.000D+00 0.000D+00 0.000D+00 0.621D+00
 Coeff:      0.891D-01 0.286D+00
 Gap=    -0.031 Goal=   None    Shift=    0.000
 Gap=     0.042 Goal=   None    Shift=    0.000
 RMSDP=3.73D-03 MaxDP=3.80D-01 DE=-2.47D+00 OVMax= 8.79D-01

 Cycle   9  Pass 1  IDiag  1:
 RMSU=  2.94D-03    CP:  9.79D-01  8.50D-01  5.50D-02  2.69D-01  3.04D-01
                    CP:  3.12D-01  4.96D-01  2.77D-01
 E= -809.038526741369     Delta-E=       -0.269530205824 Rises=F Damp=F
 DIIS: error= 3.09D-02 at cycle   9 NSaved=   9.
 NSaved= 9 IEnMin= 9 EnMin= -809.038526741369     IErMin= 2 ErrMin= 2.29D-02
 ErrMax= 3.09D-02  0.00D+00 EMaxC= 1.00D-01 BMatC= 9.06D-01 BMatP= 6.04D-01
 IDIUse=2 WtCom= 0.00D+00 WtEn= 1.00D+00
 EnCoef did     2 forward-backward iterations
 Coeff-En:   0.000D+00 0.000D+00 0.000D+00 0.000D+00 0.000D+00 0.442D+00
 Coeff-En:   0.000D+00 0.273D+00 0.285D+00
 Coeff:      0.000D+00 0.000D+00 0.000D+00 0.000D+00 0.000D+00 0.442D+00
 Coeff:      0.000D+00 0.273D+00 0.285D+00
 Gap=    -0.030 Goal=   None    Shift=    0.000
 Gap=     0.036 Goal=   None    Shift=    0.000
 RMSDP=3.42D-03 MaxDP=3.63D-01 DE=-2.70D-01 OVMax= 9.68D-01

 Cycle  10  Pass 1  IDiag  1:
 RMSU=  2.06D-03    CP:  9.84D-01  5.45D-01  9.35D-02  2.14D-01  1.24D-01
                    CP:  5.64D-01  7.85D-02  1.90D-01  2.90D-01
 E= -809.123987732568     Delta-E=       -0.085460991198 Rises=F Damp=F
 DIIS: error= 3.30D-02 at cycle  10 NSaved=  10.
 NSaved=10 IEnMin=10 EnMin= -809.123987732568     IErMin= 2 ErrMin= 2.29D-02
 ErrMax= 3.30D-02  0.00D+00 EMaxC= 1.00D-01 BMatC= 6.52D-01 BMatP= 6.04D-01
 IDIUse=3 WtCom= 6.70D-01 WtEn= 3.30D-01
 EnCoef did    10 forward-backward iterations
 Coeff-Com: -0.732D-01 0.300D+00-0.646D-02-0.120D-02 0.365D-01 0.266D+00
 Coeff-Com: -0.396D-01 0.163D+00 0.147D+00 0.208D+00
 Coeff-En:   0.000D+00 0.000D+00 0.000D+00 0.000D+00 0.000D+00 0.124D-02
 Coeff-En:   0.000D+00 0.212D+00 0.262D+00 0.525D+00
 Coeff:     -0.490D-01 0.201D+00-0.433D-02-0.805D-03 0.244D-01 0.179D+00
 Coeff:     -0.265D-01 0.179D+00 0.185D+00 0.313D+00
 Gap=     0.015 Goal=   None    Shift=    0.000
 Gap=     0.041 Goal=   None    Shift=    0.000
 RMSDP=6.57D-04 MaxDP=6.26D-02 DE=-8.55D-02 OVMax= 1.22D-01

 Cycle  11  Pass 1  IDiag  1:
 RMSU=  5.02D-04    CP:  9.82D-01  6.24D-01  1.07D-01  2.59D-01  1.39D-01
                    CP:  6.43D-01  1.01D-01  2.06D-01  2.45D-01  1.00D+00
 E= -809.131882886937     Delta-E=       -0.007895154369 Rises=F Damp=F
 DIIS: error= 3.58D-02 at cycle  11 NSaved=  11.
 NSaved=11 IEnMin=11 EnMin= -809.131882886937     IErMin= 2 ErrMin= 2.29D-02
 ErrMax= 3.58D-02  0.00D+00 EMaxC= 1.00D-01 BMatC= 6.79D-01 BMatP= 6.04D-01
 IDIUse=2 WtCom= 0.00D+00 WtEn= 1.00D+00
 EnCoef did   100 forward-backward iterations
 Coeff-En:   0.000D+00 0.000D+00 0.000D+00 0.000D+00 0.000D+00 0.130D-01
 Coeff-En:   0.000D+00 0.225D+00 0.241D+00 0.109D-02 0.520D+00
 Coeff:      0.000D+00 0.000D+00 0.000D+00 0.000D+00 0.000D+00 0.130D-01
 Coeff:      0.000D+00 0.225D+00 0.241D+00 0.109D-02 0.520D+00
 Gap=     0.003 Goal=   None    Shift=    0.000
 Gap=     0.046 Goal=   None    Shift=    0.000
 RMSDP=3.67D-03 MaxDP=3.51D-01 DE=-7.90D-03 OVMax= 9.95D-01

 Cycle  12  Pass 1  IDiag  1:
 RMSU=  1.60D-03    CP:  9.75D-01  1.20D+00  5.62D-02  3.13D-01  4.17D-01
                    CP:  3.66D-01  4.50D-01  3.59D-01  5.92D-01 -6.85D-02
                    CP:  2.96D-01
 E= -808.944347224100     Delta-E=        0.187535662837 Rises=F Damp=F
 DIIS: error= 4.23D-02 at cycle  12 NSaved=  12.
 NSaved=12 IEnMin=11 EnMin= -809.131882886937     IErMin= 2 ErrMin= 2.29D-02
 ErrMax= 4.23D-02  0.00D+00 EMaxC= 1.00D-01 BMatC= 1.01D+00 BMatP= 6.04D-01
 IDIUse=2 WtCom= 0.00D+00 WtEn= 1.00D+00
 EnCoef did    99 forward-backward iterations
 Coeff-En:   0.000D+00 0.000D+00 0.000D+00 0.000D+00 0.000D+00 0.000D+00
 Coeff-En:   0.000D+00 0.146D+00 0.237D-01 0.906D-01 0.481D+00 0.259D+00
 Coeff:      0.000D+00 0.000D+00 0.000D+00 0.000D+00 0.000D+00 0.000D+00
 Coeff:      0.000D+00 0.146D+00 0.237D-01 0.906D-01 0.481D+00 0.259D+00
 Gap=     0.004 Goal=   None    Shift=    0.000
 Gap=     0.042 Goal=   None    Shift=    0.000
 RMSDP=1.38D-03 MaxDP=8.00D-02 DE= 1.88D-01 OVMax= 2.39D-01

 Cycle  13  Pass 1  IDiag  1:
 RMSU=  7.01D-04    CP:  9.78D-01  9.27D-01  4.58D-02  2.66D-01  3.59D-01
                    CP:  3.21D-01  5.19D-01  3.59D-01  7.23D-01 -6.56D-02
                    CP:  9.99D-01  4.74D-01
 E= -809.056064692896     Delta-E=       -0.111717468795 Rises=F Damp=F
 DIIS: error= 3.34D-02 at cycle  13 NSaved=  13.
 NSaved=13 IEnMin=11 EnMin= -809.131882886937     IErMin= 2 ErrMin= 2.29D-02
 ErrMax= 3.34D-02  0.00D+00 EMaxC= 1.00D-01 BMatC= 9.30D-01 BMatP= 6.04D-01
 IDIUse=2 WtCom= 0.00D+00 WtEn= 1.00D+00
 EnCoef did    64 forward-backward iterations
 Coeff-En:   0.000D+00 0.000D+00 0.000D+00 0.000D+00 0.000D+00 0.000D+00
 Coeff-En:   0.000D+00 0.103D+00 0.000D+00 0.172D+00 0.380D+00 0.107D+00
 Coeff-En:   0.237D+00
 Coeff:      0.000D+00 0.000D+00 0.000D+00 0.000D+00 0.000D+00 0.000D+00
 Coeff:      0.000D+00 0.103D+00 0.000D+00 0.172D+00 0.380D+00 0.107D+00
 Coeff:      0.237D+00
 Gap=    -0.012 Goal=   None    Shift=    0.000
 Gap=     0.032 Goal=   None    Shift=    0.000
 RMSDP=3.05D-03 MaxDP=3.56D-01 DE=-1.12D-01 OVMax= 8.66D-01

 Cycle  14  Pass 1  IDiag  1:
 RMSU=  1.04D-03    CP:  9.79D-01  8.93D-01  6.33D-02  3.19D-01  2.27D-01
                    CP:  4.31D-01  2.62D-01  8.92D-01  1.63D-01  1.46D-01
                    CP: -9.94D-02 -3.61D-02 -5.66D-02
 E= -809.170757532746     Delta-E=       -0.114692839850 Rises=F Damp=F
 DIIS: error= 2.54D-02 at cycle  14 NSaved=  14.
 NSaved=14 IEnMin=14 EnMin= -809.170757532746     IErMin= 2 ErrMin= 2.29D-02
 ErrMax= 2.54D-02  0.00D+00 EMaxC= 1.00D-01 BMatC= 5.53D-01 BMatP= 6.04D-01
 IDIUse=3 WtCom= 7.46D-01 WtEn= 2.54D-01
 EnCoef did   100 forward-backward iterations
 Coeff-Com: -0.369D-01 0.175D+00-0.335D-02 0.400D-02 0.271D-01 0.562D-01
 Coeff-Com: -0.335D-01-0.847D-01 0.293D-01 0.853D-01 0.238D+00-0.642D-01
 Coeff-Com:  0.227D+00 0.381D+00
 Coeff-En:   0.000D+00 0.000D+00 0.000D+00 0.000D+00 0.000D+00 0.000D+00
 Coeff-En:   0.000D+00 0.000D+00 0.149D-02 0.801D-01 0.387D+00 0.763D-03
 Coeff-En:   0.264D+00 0.266D+00
 Coeff:     -0.275D-01 0.131D+00-0.250D-02 0.298D-02 0.202D-01 0.419D-01
 Coeff:     -0.250D-01-0.631D-01 0.222D-01 0.840D-01 0.276D+00-0.476D-01
 Coeff:      0.236D+00 0.351D+00
 Gap=    -0.001 Goal=   None    Shift=    0.000
 Gap=     0.059 Goal=   None    Shift=    0.000
 RMSDP=3.22D-03 MaxDP=3.59D-01 DE=-1.15D-01 OVMax= 8.06D-01

 Cycle  15  Pass 1  IDiag  1:
 RMSU=  2.59D-04    CP:  9.83D-01  5.78D-01  1.02D-01  2.43D-01  1.28D-01
                    CP:  6.09D-01  1.04D-01  1.96D-01  2.86D-01  1.01D+00
                    CP:  6.57D-01 -6.72D-02 -1.45D-02  1.30D-02
 E= -809.133144041015     Delta-E=        0.037613491730 Rises=F Damp=F
 DIIS: error= 3.16D-02 at cycle  15 NSaved=  15.
 NSaved=15 IEnMin=14 EnMin= -809.170757532746     IErMin= 2 ErrMin= 2.29D-02
 ErrMax= 3.16D-02  0.00D+00 EMaxC= 1.00D-01 BMatC= 5.89D-01 BMatP= 5.53D-01
 IDIUse=3 WtCom= 7.46D-01 WtEn= 2.54D-01
 EnCoef did   100 forward-backward iterations
 Coeff-Com: -0.385D-01 0.162D+00-0.360D-02 0.340D-02 0.239D-01 0.502D-01
 Coeff-Com: -0.258D-01-0.107D+00 0.677D-01-0.177D+00 0.474D-01-0.592D-01
 Coeff-Com:  0.136D+00 0.470D+00 0.451D+00
 Coeff-En:   0.000D+00 0.000D+00 0.000D+00 0.000D+00 0.000D+00 0.000D+00
 Coeff-En:   0.000D+00 0.000D+00 0.866D-03 0.809D-03 0.161D+00 0.955D-02
 Coeff-En:   0.245D+00 0.278D+00 0.305D+00
 Coeff:     -0.287D-01 0.121D+00-0.269D-02 0.253D-02 0.178D-01 0.374D-01
 Coeff:     -0.192D-01-0.794D-01 0.507D-01-0.132D+00 0.762D-01-0.417D-01
 Coeff:      0.164D+00 0.421D+00 0.413D+00
 Gap=     0.017 Goal=   None    Shift=    0.000
 Gap=     0.042 Goal=   None    Shift=    0.000
 RMSDP=1.19D-04 MaxDP=5.85D-03 DE= 3.76D-02 OVMax= 1.01D-02

 Cycle  16  Pass 1  IDiag  1:
 RMSU=  9.52D-05    CP:  9.83D-01  5.81D-01  1.02D-01  2.48D-01  1.29D-01
                    CP:  6.15D-01  1.03D-01  1.94D-01  2.88D-01  1.01D+00
                    CP:  7.04D-01 -6.15D-02 -7.19D-02  2.95D-02  8.51D-01
 E= -809.138119508703     Delta-E=       -0.004975467688 Rises=F Damp=F
 DIIS: error= 3.17D-02 at cycle  16 NSaved=  16.
 NSaved=16 IEnMin=14 EnMin= -809.170757532746     IErMin= 2 ErrMin= 2.29D-02
 ErrMax= 3.17D-02  0.00D+00 EMaxC= 1.00D-01 BMatC= 5.84D-01 BMatP= 5.53D-01
 IDIUse=3 WtCom= 7.46D-01 WtEn= 2.54D-01
 EnCoef did   100 forward-backward iterations
 Coeff-Com: -0.434D-01 0.173D+00-0.345D-02 0.296D-02 0.221D-01 0.526D-01
 Coeff-Com: -0.241D-01-0.113D+00 0.651D-01-0.136D+00 0.124D+00-0.644D-01
 Coeff-Com:  0.152D+00 0.467D+00 0.641D+00-0.314D+00
 Coeff-En:   0.000D+00 0.000D+00 0.000D+00 0.000D+00 0.000D+00 0.000D+00
 Coeff-En:   0.000D+00 0.000D+00 0.133D-02 0.124D-02 0.738D-02 0.157D-01
 Coeff-En:   0.231D+00 0.285D+00 0.127D+00 0.331D+00
 Coeff:     -0.324D-01 0.129D+00-0.257D-02 0.221D-02 0.165D-01 0.392D-01
 Coeff:     -0.179D-01-0.844D-01 0.489D-01-0.101D+00 0.940D-01-0.440D-01
 Coeff:      0.172D+00 0.421D+00 0.510D+00-0.150D+00
 Gap=     0.017 Goal=   None    Shift=    0.000
 Gap=     0.041 Goal=   None    Shift=    0.000
 RMSDP=4.23D-05 MaxDP=2.30D-03 DE=-4.98D-03 OVMax= 6.88D-03

 Cycle  17  Pass 1  IDiag  1:
 RMSU=  2.95D-05    CP:  9.83D-01  5.82D-01  1.03D-01  2.48D-01  1.29D-01
                    CP:  6.15D-01  1.04D-01  1.94D-01  2.88D-01  1.02D+00
                    CP:  7.10D-01 -6.76D-02 -4.70D-02  2.78D-02  8.08D-01
                    CP:  8.44D-01
 E= -809.133364851754     Delta-E=        0.004754656949 Rises=F Damp=F
 DIIS: error= 3.23D-02 at cycle  17 NSaved=  17.
 NSaved=17 IEnMin=14 EnMin= -809.170757532746     IErMin= 2 ErrMin= 2.29D-02
 ErrMax= 3.23D-02  0.00D+00 EMaxC= 1.00D-01 BMatC= 6.03D-01 BMatP= 5.53D-01
 IDIUse=3 WtCom= 7.46D-01 WtEn= 2.54D-01
 EnCoef did   100 forward-backward iterations
 Rare condition: small coef for last iteration:  0.247D-14
 Coeff-Com: -0.368D-01 0.159D+00-0.320D-02 0.390D-02 0.207D-01 0.444D-01
 Coeff-Com: -0.227D-01-0.942D-01 0.497D-01-0.157D+00 0.226D+00-0.672D-01
 Coeff-Com:  0.158D+00 0.433D+00 0.386D+00 0.264D+01-0.274D+01
 Coeff-En:   0.000D+00 0.000D+00 0.000D+00 0.000D+00 0.000D+00 0.000D+00
 Coeff-En:   0.000D+00 0.000D+00 0.482D-01 0.000D+00 0.946D-01 0.000D+00
 Coeff-En:   0.141D+00 0.383D+00 0.108D+00 0.000D+00 0.225D+00
 Coeff:     -0.368D-01 0.159D+00-0.320D-02 0.390D-02 0.207D-01 0.444D-01
 Coeff:     -0.227D-01-0.942D-01 0.497D-01-0.157D+00 0.226D+00-0.672D-01
 Coeff:      0.158D+00 0.433D+00 0.386D+00 0.264D+01-0.274D+01
 Gap=     0.019 Goal=   None    Shift=    0.000
 Gap=     0.041 Goal=   None    Shift=    0.000
 RMSDP=1.52D-04 MaxDP=7.50D-03 DE= 4.75D-03 OVMax= 2.14D-02

 Cycle  18  Pass 1  IDiag  1:
 RMSU=  9.32D-05    CP:  9.83D-01  5.67D-01  1.03D-01  2.45D-01  1.24D-01
                    CP:  6.10D-01  1.17D-01  1.97D-01  2.89D-01  1.02D+00
                    CP:  7.85D-01 -1.05D-01  3.74D-02  3.98D-03  8.28D-01
                    CP:  9.18D-01  2.55D+00
 E= -809.129211432229     Delta-E=        0.004153419525 Rises=F Damp=F
 DIIS: error= 3.19D-02 at cycle  18 NSaved=  18.
 NSaved=18 IEnMin=14 EnMin= -809.170757532746     IErMin= 2 ErrMin= 2.29D-02
 ErrMax= 3.19D-02  0.00D+00 EMaxC= 1.00D-01 BMatC= 5.89D-01 BMatP= 5.53D-01
 IDIUse=3 WtCom= 7.46D-01 WtEn= 2.54D-01
 EnCoef did   100 forward-backward iterations
 Rare condition: small coef for last iteration:  0.000D+00
 Coeff-Com: -0.745D-01 0.217D+00-0.141D-02 0.160D-02 0.133D-01 0.649D-01
 Coeff-Com: -0.234D-01-0.764D-01 0.551D-01-0.164D+00 0.484D+00 0.339D-02
 Coeff-Com:  0.616D-01 0.383D+00 0.331D+00 0.755D+01-0.932D+01 0.149D+01
[...]

 Cycle 116  Pass 1  IDiag  1:
 RMSU=  1.22D-06    CP:  1.00D+00  7.78D-01  2.48D-01  3.00D+00  5.73D-02
                    CP:  6.05D-01 -1.35D-01  8.99D-01  2.37D-01 -1.14D+00
                    CP: -4.90D-01 -9.18D-01  3.22D-01 -2.88D-01  1.00D+00
 E= -809.309192103971     Delta-E=       -0.000363580033 Rises=F Damp=F
 DIIS: error= 1.82D-03 at cycle 116 NSaved=  20.
 NSaved=20 IEnMin= 5 EnMin= -809.311638214208     IErMin=12 ErrMin= 7.25D-04
 ErrMax= 1.82D-03  0.00D+00 EMaxC= 1.00D-01 BMatC= 2.15D-03 BMatP= 7.97D-05
 IDIUse=3 WtCom= 9.93D-01 WtEn= 6.94D-03
 EnCoef did   100 forward-backward iterations
 Rare condition: small coef for last iteration:  0.283D-06
 Coeff-Com: -0.733D+00 0.185D+00 0.287D-01 0.119D+01-0.165D+01 0.201D+00
 Coeff-Com:  0.783D+00-0.113D-01-0.154D+00-0.525D+00 0.112D+00 0.121D+01
 Coeff-Com: -0.137D+01 0.416D+00 0.792D+00 0.647D+00-0.362D+00 0.334D+00
 Coeff-Com:  0.662D+00-0.755D+00
 Coeff-En:   0.965D+00 0.000D+00 0.000D+00 0.000D+00 0.000D+00 0.000D+00
 Coeff-En:   0.000D+00 0.349D-01 0.000D+00 0.000D+00 0.000D+00 0.000D+00
 Coeff-En:   0.000D+00 0.000D+00 0.000D+00 0.000D+00 0.000D+00 0.000D+00
 Coeff-En:   0.000D+00 0.170D-03
 Coeff:     -0.733D+00 0.185D+00 0.287D-01 0.119D+01-0.165D+01 0.201D+00
 Coeff:      0.783D+00-0.113D-01-0.154D+00-0.525D+00 0.112D+00 0.121D+01
 Coeff:     -0.137D+01 0.416D+00 0.792D+00 0.647D+00-0.362D+00 0.334D+00
 Coeff:      0.662D+00-0.755D+00
 Gap=     0.002 Goal=   None    Shift=    0.000
 Gap=     0.051 Goal=   None    Shift=    0.000
 RMSDP=5.35D-05 MaxDP=6.77D-03 DE=-3.64D-04 OVMax= 1.08D-02

 Cycle 117  Pass 1  IDiag  1:
 RMSU=  1.10D-06    CP:  1.00D+00  2.30D+00  2.31D-01  3.00D+00  3.16D-02
                    CP:  1.15D-01  6.39D-01  7.26D-01  7.36D-01  1.32D+00
                    CP: -7.90D-01  1.54D+00 -2.58D-01 -3.50D-02 -4.15D-01
                    CP:  5.55D-01
 E= -809.309264269449     Delta-E=       -0.000072165479 Rises=F Damp=F
 DIIS: error= 1.68D-03 at cycle 117 NSaved=  20.
 NSaved=20 IEnMin= 5 EnMin= -809.311638214208     IErMin=12 ErrMin= 7.25D-04
 ErrMax= 1.68D-03  0.00D+00 EMaxC= 1.00D-01 BMatC= 1.91D-03 BMatP= 7.97D-05
 IDIUse=3 WtCom= 9.93D-01 WtEn= 6.94D-03
 EnCoef did   100 forward-backward iterations
 Rare condition: small coef for last iteration:  0.000D+00
 Coeff-Com: -0.585D+00-0.128D+00 0.567D-02 0.104D+01-0.155D+01 0.247D+00
 Coeff-Com:  0.111D+01-0.507D+00-0.178D+00-0.688D+00 0.934D-01 0.165D+01
 Coeff-Com: -0.144D+01 0.279D+00 0.915D+00 0.758D+00-0.356D+00 0.391D+00
 Coeff-Com: -0.809D+00 0.759D+00
 Coeff-En:   0.000D+00 0.000D+00 0.000D+00 0.000D+00 0.000D+00 0.000D+00
 Coeff-En:   0.000D+00 0.913D+00 0.000D+00 0.000D+00 0.000D+00 0.000D+00
 Coeff-En:   0.000D+00 0.000D+00 0.000D+00 0.000D+00 0.000D+00 0.000D+00
 Coeff-En:   0.000D+00 0.871D-01
 Coeff:     -0.585D+00-0.128D+00 0.567D-02 0.104D+01-0.155D+01 0.247D+00
 Coeff:      0.111D+01-0.507D+00-0.178D+00-0.688D+00 0.934D-01 0.165D+01
 Coeff:     -0.144D+01 0.279D+00 0.915D+00 0.758D+00-0.356D+00 0.391D+00
 Coeff:     -0.809D+00 0.759D+00
 Gap=     0.002 Goal=   None    Shift=    0.000
 Gap=     0.051 Goal=   None    Shift=    0.000
 RMSDP=1.16D-04 MaxDP=1.17D-02 DE=-7.22D-05 OVMax= 2.66D-02

 Cycle 118  Pass 1  IDiag  1:
 RMSU=  1.94D-05    CP:  1.00D+00  1.26D+00  9.37D-01  3.00D+00  3.75D-01
                    CP:  9.22D-01  3.00D+00  1.19D+00 -4.71D-01  1.66D+00
                    CP: -3.00D+00  3.00D+00 -8.43D-01 -1.44D+00 -7.69D-01
                    CP:  3.00D+00 -1.29D+00
 E= -809.309636235511     Delta-E=       -0.000371966061 Rises=F Damp=F
 DIIS: error= 1.41D-03 at cycle 118 NSaved=  20.
 NSaved=20 IEnMin= 5 EnMin= -809.311638214208     IErMin=12 ErrMin= 7.25D-04
 ErrMax= 1.41D-03  0.00D+00 EMaxC= 1.00D-01 BMatC= 1.29D-03 BMatP= 7.97D-05
 IDIUse=3 WtCom= 9.93D-01 WtEn= 6.94D-03
 EnCoef did   100 forward-backward iterations
 Rare condition: small coef for last iteration:  0.229D-08
 Coeff-Com: -0.764D+00 0.133D+00-0.271D-01 0.125D+01-0.173D+01 0.371D+00
 Coeff-Com:  0.855D+00-0.252D+00-0.165D+00-0.613D+00 0.119D+00 0.140D+01
 Coeff-Com: -0.152D+01 0.407D+00 0.899D+00 0.722D+00-0.363D+00 0.368D+00
 Coeff-Com:  0.433D+00-0.516D+00
 Coeff-En:   0.000D+00 0.000D+00 0.000D+00 0.000D+00 0.000D+00 0.000D+00
 Coeff-En:   0.000D+00 0.821D+00 0.000D+00 0.000D+00 0.000D+00 0.000D+00
 Coeff-En:   0.000D+00 0.000D+00 0.000D+00 0.000D+00 0.000D+00 0.000D+00
 Coeff-En:   0.000D+00 0.179D+00
 Coeff:     -0.764D+00 0.133D+00-0.271D-01 0.125D+01-0.173D+01 0.371D+00
 Coeff:      0.855D+00-0.252D+00-0.165D+00-0.613D+00 0.119D+00 0.140D+01
 Coeff:     -0.152D+01 0.407D+00 0.899D+00 0.722D+00-0.363D+00 0.368D+00
 Coeff:      0.433D+00-0.516D+00
 Gap=     0.002 Goal=   None    Shift=    0.000
 Gap=     0.051 Goal=   None    Shift=    0.000
 RMSDP=8.89D-05 MaxDP=9.38D-03 DE=-3.72D-04 OVMax= 1.97D-02

 Cycle 119  Pass 1  IDiag  1:
 RMSU=  2.71D-06    CP:  1.00D+00  1.96D+00  3.90D-01  3.00D+00  1.08D-01
                    CP:  3.56D-01  1.07D+00  1.05D+00  2.65D-01 -5.33D-02
                    CP: -2.71D+00  1.27D+00 -8.08D-01 -3.40D-01  5.88D-01
                    CP:  1.73D+00 -4.17D-01  6.12D-02
 E= -809.309334990600     Delta-E=        0.000301244911 Rises=F Damp=F
 DIIS: error= 1.67D-03 at cycle 119 NSaved=  20.
 NSaved=20 IEnMin= 5 EnMin= -809.311638214208     IErMin=12 ErrMin= 7.25D-04
 ErrMax= 1.67D-03  0.00D+00 EMaxC= 1.00D-01 BMatC= 1.82D-03 BMatP= 7.97D-05
 IDIUse=3 WtCom= 9.93D-01 WtEn= 6.94D-03
 EnCoef did   100 forward-backward iterations
 Rare condition: small coef for last iteration:  0.000D+00
 Coeff-Com: -0.794D+00 0.190D+00-0.281D-01 0.125D+01-0.169D+01 0.305D+00
 Coeff-Com:  0.745D+00-0.402D-01-0.190D+00-0.556D+00 0.106D+00 0.134D+01
 Coeff-Com: -0.145D+01 0.328D+00 0.840D+00 0.685D+00-0.317D+00 0.361D+00
 Coeff-Com: -0.850D+00 0.771D+00
 Coeff-En:   0.000D+00 0.000D+00 0.000D+00 0.000D+00 0.000D+00 0.000D+00
 Coeff-En:   0.000D+00 0.898D+00 0.000D+00 0.000D+00 0.000D+00 0.000D+00
 Coeff-En:   0.000D+00 0.000D+00 0.000D+00 0.000D+00 0.000D+00 0.000D+00
 Coeff-En:   0.000D+00 0.102D+00
 Coeff:     -0.794D+00 0.190D+00-0.281D-01 0.125D+01-0.169D+01 0.305D+00
 Coeff:      0.745D+00-0.402D-01-0.190D+00-0.556D+00 0.106D+00 0.134D+01
 Coeff:     -0.145D+01 0.328D+00 0.840D+00 0.685D+00-0.317D+00 0.361D+00
 Coeff:     -0.850D+00 0.771D+00
 Gap=     0.002 Goal=   None    Shift=    0.000
 Gap=     0.051 Goal=   None    Shift=    0.000
 RMSDP=3.34D-05 MaxDP=3.59D-03 DE= 3.01D-04 OVMax= 8.20D-03

 Cycle 120  Pass 1  IDiag  1:
 RMSU=  1.08D-06    CP:  1.00D+00  2.30D+00  4.60D-01  3.00D+00  9.20D-03
                    CP:  2.00D-02  7.71D-01  1.09D+00  1.20D+00  4.39D-01
                    CP:  4.44D-02  9.70D-01 -1.08D+00 -1.84D-01  1.11D-02
                    CP:  3.35D-01  7.78D-01  3.89D-03  7.46D-02
 E= -809.309343617054     Delta-E=       -0.000008626454 Rises=F Damp=F
 DIIS: error= 1.55D-03 at cycle 120 NSaved=  20.
 NSaved=20 IEnMin= 5 EnMin= -809.311638214208     IErMin=12 ErrMin= 7.25D-04
 ErrMax= 1.55D-03  0.00D+00 EMaxC= 1.00D-01 BMatC= 1.62D-03 BMatP= 7.97D-05
 IDIUse=3 WtCom= 9.93D-01 WtEn= 6.94D-03
 EnCoef did   100 forward-backward iterations
 Rare condition: small coef for last iteration:  0.000D+00
 Coeff-Com: -0.701D+00 0.263D-01 0.126D+00 0.111D+01-0.163D+01 0.126D-01
 Coeff-Com:  0.110D+01-0.128D+00-0.182D+00-0.663D+00 0.780D-01 0.136D+01
 Coeff-Com: -0.121D+01 0.347D+00 0.765D+00 0.653D+00-0.409D+00 0.316D+00
 Coeff-Com: -0.246D+00 0.264D+00
 Coeff-En:   0.000D+00 0.000D+00 0.000D+00 0.000D+00 0.000D+00 0.000D+00
 Coeff-En:   0.000D+00 0.937D+00 0.000D+00 0.000D+00 0.000D+00 0.000D+00
 Coeff-En:   0.000D+00 0.000D+00 0.000D+00 0.000D+00 0.000D+00 0.000D+00
 Coeff-En:   0.000D+00 0.625D-01
 Coeff:     -0.701D+00 0.263D-01 0.126D+00 0.111D+01-0.163D+01 0.126D-01
 Coeff:      0.110D+01-0.128D+00-0.182D+00-0.663D+00 0.780D-01 0.136D+01
 Coeff:     -0.121D+01 0.347D+00 0.765D+00 0.653D+00-0.409D+00 0.316D+00
 Coeff:     -0.246D+00 0.264D+00
 Gap=     0.002 Goal=   None    Shift=    0.000
 Gap=     0.052 Goal=   None    Shift=    0.000
 RMSDP=6.15D-05 MaxDP=8.33D-03 DE=-8.63D-06 OVMax= 1.06D-02

 Cycle 121  Pass 1  IDiag  1:
 Restarting incremental Fock formation.
 E= -809.309051314152     Delta-E=        0.000292302902 Rises=F Damp=F
 DIIS: error= 1.93D-03 at cycle 121 NSaved=  20.
 NSaved=20 IEnMin= 5 EnMin= -809.311638214208     IErMin=12 ErrMin= 7.25D-04
 ErrMax= 1.93D-03  0.00D+00 EMaxC= 1.00D-01 BMatC= 2.42D-03 BMatP= 7.97D-05
 IDIUse=3 WtCom= 9.93D-01 WtEn= 6.94D-03
 EnCoef did   100 forward-backward iterations
 Rare condition: small coef for last iteration:  0.000D+00
 Coeff-Com: -0.700D+00-0.239D-02 0.154D+00 0.107D+01-0.159D+01-0.706D-01
 Coeff-Com:  0.116D+01-0.935D-01-0.195D+00-0.682D+00 0.649D-01 0.139D+01
 Coeff-Com: -0.115D+01 0.306D+00 0.731D+00 0.645D+00-0.406D+00 0.310D+00
 Coeff-Com:  0.271D+00-0.212D+00
 Coeff-En:   0.000D+00 0.000D+00 0.000D+00 0.000D+00 0.000D+00 0.000D+00
 Coeff-En:   0.000D+00 0.000D+00 0.000D+00 0.000D+00 0.000D+00 0.000D+00
 Coeff-En:   0.000D+00 0.000D+00 0.000D+00 0.000D+00 0.000D+00 0.000D+00
 Coeff-En:   0.000D+00 0.100D+01
 Coeff:     -0.700D+00-0.239D-02 0.154D+00 0.107D+01-0.159D+01-0.706D-01
 Coeff:      0.116D+01-0.935D-01-0.195D+00-0.682D+00 0.649D-01 0.139D+01
 Coeff:     -0.115D+01 0.306D+00 0.731D+00 0.645D+00-0.406D+00 0.310D+00
 Coeff:      0.271D+00-0.212D+00
 Gap=     0.002 Goal=   None    Shift=    0.000
 Gap=     0.052 Goal=   None    Shift=    0.000
 RMSDP=7.55D-06 MaxDP=1.32D-03 DE= 2.92D-04 OVMax= 1.64D-03

 Cycle 122  Pass 1  IDiag  1:
 RMSU=  7.55D-06    CP:  1.00D+00
 E= -809.309054879089     Delta-E=       -0.000003564937 Rises=F Damp=F
 DIIS: error= 1.91D-03 at cycle 122 NSaved=  20.
 NSaved=20 IEnMin= 5 EnMin= -809.311638214208     IErMin=12 ErrMin= 7.25D-04
 ErrMax= 1.91D-03  0.00D+00 EMaxC= 1.00D-01 BMatC= 2.38D-03 BMatP= 7.97D-05
 IDIUse=3 WtCom= 9.93D-01 WtEn= 6.94D-03
 Coeff-Com: -0.717D+00 0.641D-01 0.129D+00 0.110D+01-0.159D+01-0.434D-01
 Coeff-Com:  0.105D+01-0.490D-02-0.197D+00-0.627D+00 0.715D-01 0.132D+01
 Coeff-Com: -0.114D+01 0.283D+00 0.725D+00 0.626D+00-0.391D+00 0.311D+00
 Coeff-Com:  0.492D+00-0.460D+00
 Coeff-En:   0.000D+00 0.000D+00 0.000D+00 0.000D+00 0.000D+00 0.000D+00
 Coeff-En:   0.000D+00 0.000D+00 0.000D+00 0.000D+00 0.000D+00 0.000D+00
 Coeff-En:   0.000D+00 0.000D+00 0.000D+00 0.000D+00 0.000D+00 0.000D+00
 Coeff-En:   0.000D+00 0.100D+01
 Coeff:     -0.712D+00 0.636D-01 0.128D+00 0.109D+01-0.158D+01-0.431D-01
 Coeff:      0.104D+01-0.487D-02-0.196D+00-0.622D+00 0.711D-01 0.131D+01
 Coeff:     -0.113D+01 0.281D+00 0.720D+00 0.622D+00-0.389D+00 0.309D+00
 Coeff:      0.489D+00-0.449D+00
 Gap=     0.002 Goal=   None    Shift=    0.000
 Gap=     0.052 Goal=   None    Shift=    0.000
 RMSDP=6.28D-05 MaxDP=4.14D-03 DE=-3.56D-06 OVMax= 1.89D-02

 Cycle 123  Pass 1  IDiag  1:
 RMSU=  6.21D-05    CP:  1.00D+00  2.17D+00
 E= -809.309388790257     Delta-E=       -0.000333911168 Rises=F Damp=F
 DIIS: error= 1.40D-03 at cycle 123 NSaved=  20.
 NSaved=20 IEnMin= 5 EnMin= -809.311638214208     IErMin=12 ErrMin= 7.25D-04
 ErrMax= 1.40D-03  0.00D+00 EMaxC= 1.00D-01 BMatC= 1.27D-03 BMatP= 7.97D-05
 IDIUse=3 WtCom= 9.93D-01 WtEn= 6.94D-03
 Coeff-Com: -0.834D+00 0.204D+00 0.118D+00 0.122D+01-0.166D+01-0.405D-01
 Coeff-Com:  0.965D+00 0.764D-01-0.189D+00-0.507D+00 0.102D+00 0.114D+01
 Coeff-Com: -0.122D+01 0.369D+00 0.706D+00 0.605D+00-0.394D+00 0.309D+00
 Coeff-Com:  0.397D+00-0.378D+00
 Coeff-En:   0.000D+00 0.000D+00 0.000D+00 0.000D+00 0.000D+00 0.000D+00
 Coeff-En:   0.000D+00 0.000D+00 0.000D+00 0.000D+00 0.000D+00 0.000D+00
 Coeff-En:   0.000D+00 0.000D+00 0.000D+00 0.000D+00 0.000D+00 0.000D+00
 Coeff-En:   0.000D+00 0.100D+01
 Coeff:     -0.828D+00 0.202D+00 0.118D+00 0.121D+01-0.164D+01-0.403D-01
 Coeff:      0.958D+00 0.759D-01-0.188D+00-0.504D+00 0.102D+00 0.113D+01
 Coeff:     -0.121D+01 0.367D+00 0.701D+00 0.601D+00-0.391D+00 0.307D+00
 Coeff:      0.395D+00-0.369D+00
 Gap=     0.002 Goal=   None    Shift=    0.000
 Gap=     0.052 Goal=   None    Shift=    0.000
 RMSDP=5.32D-05 MaxDP=2.96D-03 DE=-3.34D-04 OVMax= 1.33D-02

 Cycle 124  Pass 1  IDiag  1:
 RMSU=  2.80D-05    CP:  1.00D+00 -1.13D+00  3.91D-01
 E= -809.309130671544     Delta-E=        0.000258118713 Rises=F Damp=F
 DIIS: error= 1.77D-03 at cycle 124 NSaved=  20.
 NSaved=20 IEnMin= 5 EnMin= -809.311638214208     IErMin=12 ErrMin= 7.25D-04
 ErrMax= 1.77D-03  0.00D+00 EMaxC= 1.00D-01 BMatC= 2.06D-03 BMatP= 7.97D-05
 IDIUse=3 WtCom= 9.93D-01 WtEn= 6.94D-03
 Rare condition: small coef for last iteration:  0.000D+00
 Coeff-Com: -0.985D+00 0.415D+00-0.289D-01 0.133D+01-0.166D+01 0.289D+00
 Coeff-Com:  0.641D+00-0.330D-01-0.135D+00-0.329D+00 0.192D+00 0.100D+01
 Coeff-Com: -0.173D+01 0.607D+00 0.818D+00 0.680D+00-0.343D+00 0.372D+00
 Coeff-Com: -0.141D+01 0.131D+01
 Coeff-En:   0.000D+00 0.000D+00 0.000D+00 0.000D+00 0.000D+00 0.000D+00
 Coeff-En:   0.000D+00 0.000D+00 0.000D+00 0.000D+00 0.000D+00 0.000D+00
 Coeff-En:   0.000D+00 0.000D+00 0.000D+00 0.000D+00 0.000D+00 0.000D+00
 Coeff-En:   0.000D+00 0.100D+01
 Coeff:     -0.985D+00 0.415D+00-0.289D-01 0.133D+01-0.166D+01 0.289D+00
 Coeff:      0.641D+00-0.330D-01-0.135D+00-0.329D+00 0.192D+00 0.100D+01
 Coeff:     -0.173D+01 0.607D+00 0.818D+00 0.680D+00-0.343D+00 0.372D+00
 Coeff:     -0.141D+01 0.131D+01
 Gap=     0.002 Goal=   None    Shift=    0.000
 Gap=     0.051 Goal=   None    Shift=    0.000
 RMSDP=1.33D-04 MaxDP=2.30D-02 DE= 2.58D-04 OVMax= 3.05D-02

 Cycle 125  Pass 1  IDiag  1:
 RMSU=  1.13D-04    CP:  1.00D+00 -3.00D+00  8.22D-01 -3.14D-01
 E= -809.309444841142     Delta-E=       -0.000314169598 Rises=F Damp=F
 DIIS: error= 1.60D-03 at cycle 125 NSaved=  20.
 NSaved=20 IEnMin= 5 EnMin= -809.311638214208     IErMin=12 ErrMin= 7.25D-04
 ErrMax= 1.60D-03  0.00D+00 EMaxC= 1.00D-01 BMatC= 1.77D-03 BMatP= 7.97D-05
 IDIUse=3 WtCom= 9.93D-01 WtEn= 6.94D-03
 EnCoef did   100 forward-backward iterations
 Rare condition: small coef for last iteration:  0.397D-08
 Coeff-Com: -0.730D+00 0.803D-01 0.721D-01 0.114D+01-0.160D+01-0.619D-01
 Coeff-Com:  0.112D+01-0.646D-01-0.218D+00-0.632D+00 0.592D-01 0.131D+01
 Coeff-Com: -0.113D+01 0.228D+00 0.708D+00 0.646D+00-0.388D+00 0.297D+00
 Coeff-Com: -0.282D+00 0.438D+00
 Coeff-En:   0.000D+00 0.000D+00 0.000D+00 0.000D+00 0.000D+00 0.000D+00
 Coeff-En:   0.000D+00 0.000D+00 0.000D+00 0.940D+00 0.000D+00 0.000D+00
 Coeff-En:   0.000D+00 0.000D+00 0.000D+00 0.000D+00 0.000D+00 0.000D+00
 Coeff-En:   0.000D+00 0.603D-01
 Coeff:     -0.730D+00 0.803D-01 0.721D-01 0.114D+01-0.160D+01-0.619D-01
 Coeff:      0.112D+01-0.646D-01-0.218D+00-0.632D+00 0.592D-01 0.131D+01
 Coeff:     -0.113D+01 0.228D+00 0.708D+00 0.646D+00-0.388D+00 0.297D+00
 Coeff:     -0.282D+00 0.438D+00
 Gap=     0.002 Goal=   None    Shift=    0.000
 Gap=     0.051 Goal=   None    Shift=    0.000
 RMSDP=1.26D-04 MaxDP=2.24D-02 DE=-3.14D-04 OVMax= 2.86D-02

 Cycle 126  Pass 1  IDiag  1:
 RMSU=  1.15D-05    CP:  1.00D+00 -2.04D+00 -2.80D-02 -5.59D-02  5.29D-02
 E= -809.309032050531     Delta-E=        0.000412790611 Rises=F Damp=F
 DIIS: error= 1.98D-03 at cycle 126 NSaved=  20.
 NSaved=20 IEnMin= 5 EnMin= -809.311638214208     IErMin=12 ErrMin= 7.25D-04
 ErrMax= 1.98D-03  0.00D+00 EMaxC= 1.00D-01 BMatC= 2.58D-03 BMatP= 7.97D-05
 IDIUse=3 WtCom= 9.93D-01 WtEn= 6.94D-03
 EnCoef did   100 forward-backward iterations
 Rare condition: small coef for last iteration:  0.000D+00
 Coeff-Com: -0.703D+00 0.507D-01 0.737D-01 0.113D+01-0.160D+01-0.219D-01
 Coeff-Com:  0.111D+01-0.807D-01-0.221D+00-0.666D+00 0.559D-01 0.137D+01
 Coeff-Com: -0.114D+01 0.210D+00 0.737D+00 0.653D+00-0.381D+00 0.306D+00
 Coeff-Com:  0.284D+00-0.165D+00
 Coeff-En:   0.000D+00 0.000D+00 0.000D+00 0.000D+00 0.000D+00 0.000D+00
 Coeff-En:   0.000D+00 0.963D+00 0.000D+00 0.000D+00 0.000D+00 0.000D+00
 Coeff-En:   0.000D+00 0.000D+00 0.000D+00 0.000D+00 0.000D+00 0.000D+00
 Coeff-En:   0.000D+00 0.365D-01
 Coeff:     -0.703D+00 0.507D-01 0.737D-01 0.113D+01-0.160D+01-0.219D-01
 Coeff:      0.111D+01-0.807D-01-0.221D+00-0.666D+00 0.559D-01 0.137D+01
 Coeff:     -0.114D+01 0.210D+00 0.737D+00 0.653D+00-0.381D+00 0.306D+00
 Coeff:      0.284D+00-0.165D+00
 Gap=     0.002 Goal=   None    Shift=    0.000
 Gap=     0.052 Goal=   None    Shift=    0.000
 RMSDP=1.71D-05 MaxDP=1.44D-03 DE= 4.13D-04 OVMax= 4.07D-03

 Cycle 127  Pass 1  IDiag  1:
 RMSU=  1.31D-06    CP:  1.00D+00 -5.02D-01  1.47D-01 -2.44D-01  4.27D-02
                    CP:  7.63D-01
 E= -809.309125746065     Delta-E=       -0.000093695534 Rises=F Damp=F
 DIIS: error= 1.85D-03 at cycle 127 NSaved=  20.
 NSaved=20 IEnMin= 5 EnMin= -809.311638214208     IErMin=12 ErrMin= 7.25D-04
 ErrMax= 1.85D-03  0.00D+00 EMaxC= 1.00D-01 BMatC= 2.25D-03 BMatP= 7.97D-05
 IDIUse=3 WtCom= 9.93D-01 WtEn= 6.94D-03
 EnCoef did   100 forward-backward iterations
 Coeff-Com: -0.665D+00 0.153D+00-0.161D-01 0.115D+01-0.159D+01 0.349D+00
 Coeff-Com:  0.743D+00-0.242D+00-0.851D-01-0.454D+00 0.163D+00 0.113D+01
 Coeff-Com: -0.158D+01 0.619D+00 0.824D+00 0.695D+00-0.388D+00 0.345D+00
 Coeff-Com:  0.260D+01-0.275D+01
 Coeff-En:   0.000D+00 0.628D+00 0.000D+00 0.000D+00 0.000D+00 0.371D+00
 Coeff-En:   0.134D-02 0.000D+00 0.000D+00 0.000D+00 0.000D+00 0.000D+00
 Coeff-En:   0.000D+00 0.000D+00 0.000D+00 0.000D+00 0.000D+00 0.000D+00
 Coeff-En:   0.000D+00 0.157D-04
 Coeff:     -0.660D+00 0.156D+00-0.160D-01 0.114D+01-0.158D+01 0.349D+00
 Coeff:      0.738D+00-0.240D+00-0.845D-01-0.451D+00 0.162D+00 0.112D+01
 Coeff:     -0.157D+01 0.615D+00 0.818D+00 0.690D+00-0.385D+00 0.343D+00
 Coeff:      0.258D+01-0.273D+01
 Gap=     0.002 Goal=   None    Shift=    0.000
 Gap=     0.051 Goal=   None    Shift=    0.000
 RMSDP=1.42D-04 MaxDP=2.53D-02 DE=-9.37D-05 OVMax= 3.30D-02

 Cycle 128  Pass 1  IDiag  1:
 RMSU=  6.17D-06    CP:  1.00D+00 -3.00D+00  9.12D-01 -1.46D+00  1.04D+00
                    CP:  3.46D-02 -1.79D+00
 E= -809.309526039833     Delta-E=       -0.000400293768 Rises=F Damp=F
 DIIS: error= 1.57D-03 at cycle 128 NSaved=  20.
 NSaved=20 IEnMin= 5 EnMin= -809.311638214208     IErMin=12 ErrMin= 7.25D-04
 ErrMax= 1.57D-03  0.00D+00 EMaxC= 1.00D-01 BMatC= 1.68D-03 BMatP= 7.97D-05
 IDIUse=3 WtCom= 9.93D-01 WtEn= 6.94D-03
 EnCoef did   100 forward-backward iterations
 Rare condition: small coef for last iteration:  0.563D-16
 Coeff-Com: -0.598D+00-0.663D-01 0.697D-01 0.105D+01-0.153D+01 0.274D-01
 Coeff-Com:  0.114D+01-0.251D+00-0.200D+00-0.665D+00 0.682D-01 0.145D+01
 Coeff-Com: -0.115D+01 0.204D+00 0.744D+00 0.675D+00-0.376D+00 0.323D+00
 Coeff-Com: -0.346D+00 0.422D+00
 Coeff-En:   0.000D+00 0.000D+00 0.000D+00 0.000D+00 0.000D+00 0.000D+00
 Coeff-En:   0.000D+00 0.000D+00 0.000D+00 0.918D+00 0.000D+00 0.000D+00
 Coeff-En:   0.000D+00 0.000D+00 0.000D+00 0.000D+00 0.000D+00 0.000D+00
 Coeff-En:   0.000D+00 0.817D-01
 Coeff:     -0.598D+00-0.663D-01 0.697D-01 0.105D+01-0.153D+01 0.274D-01
 Coeff:      0.114D+01-0.251D+00-0.200D+00-0.665D+00 0.682D-01 0.145D+01
 Coeff:     -0.115D+01 0.204D+00 0.744D+00 0.675D+00-0.376D+00 0.323D+00
 Coeff:     -0.346D+00 0.422D+00
 Gap=     0.002 Goal=   None    Shift=    0.000
 Gap=     0.051 Goal=   None    Shift=    0.000
 RMSDP=9.60D-05 MaxDP=1.69D-02 DE=-4.00D-04 OVMax= 2.19D-02

 >>>>>>>>>> Convergence criterion not met.
 SCF Done:  E(UPW91-PW91) =  -809.309526040     A.U. after  129 cycles
            NFock=128  Conv=0.96D-04     -V/T= 2.0809
 <Sx>= 0.0000 <Sy>= 0.0000 <Sz>= 0.5000 <S**2>= 1.7267 S= 0.9059
 <L.S>= 0.000000000000E+00
 KE= 7.487591649466D+02 PE=-3.954314880051D+03 EE= 1.350269424805D+03
 Annihilation of the first spin contaminant:
 S**2 before annihilation     1.7267,   after     0.7777
 Convergence failure -- run terminated.
 Error termination via Lnk1e in /opt/gaussian/g09/l502.exe at Tue Mar 10 22:36:00 2020.
 Job cpu time:       0 days  3 hours 13 minutes 40.1 seconds.
 File lengths (MBytes):  RWF=     68 Int=      0 D2E=      0 Chk=      2 Scr=      1
