-catch_rsh /opt/sge/default/spool/node105/active_jobs/10609.1/pe_hostfile
node105
node105
node105
node105
node105
node105
node105
node105
node105
node105
node105
node105
node105
node105
node105
node105
Got 16 slots.
node105
node105
node105
node105
node105
node105
node105
node105
node105
node105
node105
node105
node105
node105
node105
node105
 Entering Gaussian System, Link 0=/opt/gaussian/g09/g09
 Initial command:
 /opt/gaussian/g09/l1.exe "/work/Gau-180815.inp" -scrdir="/work/"
 Entering Link 1 = /opt/gaussian/g09/l1.exe PID=    180816.
  
 Copyright (c) 1988,1990,1992,1993,1995,1998,2003,2009,2013,
            Gaussian, Inc.  All Rights Reserved.
  
 This is part of the Gaussian(R) 09 program.  It is based on
 the Gaussian(R) 03 system (copyright 2003, Gaussian, Inc.),
 the Gaussian(R) 98 system (copyright 1998, Gaussian, Inc.),
 the Gaussian(R) 94 system (copyright 1995, Gaussian, Inc.),
 the Gaussian 92(TM) system (copyright 1992, Gaussian, Inc.),
 the Gaussian 90(TM) system (copyright 1990, Gaussian, Inc.),
 the Gaussian 88(TM) system (copyright 1988, Gaussian, Inc.),
 the Gaussian 86(TM) system (copyright 1986, Carnegie Mellon
 University), and the Gaussian 82(TM) system (copyright 1983,
 Carnegie Mellon University). Gaussian is a federally registered
 trademark of Gaussian, Inc.
  
 This software contains proprietary and confidential information,
 including trade secrets, belonging to Gaussian, Inc.
  
 This software is provided under written license and may be
 used, copied, transmitted, or stored only in accord with that
 written license.
  
 The following legend is applicable only to US Government
 contracts under FAR:
  
                    RESTRICTED RIGHTS LEGEND
  
 Use, reproduction and disclosure by the US Government is
 subject to restrictions as set forth in subparagraphs (a)
 and (c) of the Commercial Computer Software - Restricted
 Rights clause in FAR 52.227-19.
  
 Gaussian, Inc.
 340 Quinnipiac St., Bldg. 40, Wallingford CT 06492
  
  
 ---------------------------------------------------------------
 Warning -- This program may not be used in any manner that
 competes with the business of Gaussian, Inc. or will provide
 assistance to any competitor of Gaussian, Inc.  The licensee
 of this program is prohibited from giving any competitor of
 Gaussian, Inc. access to this program.  By using this program,
 the user acknowledges that Gaussian, Inc. is engaged in the
 business of creating and licensing software in the field of
 computational chemistry and represents and warrants to the
 licensee that it is not a competitor of Gaussian, Inc. and that
 it will not use this program in any manner prohibited above.
 ---------------------------------------------------------------
  

 Cite this work as:
 Gaussian 09, Revision D.01,
 M. J. Frisch, G. W. Trucks, H. B. Schlegel, G. E. Scuseria, 
 M. A. Robb, J. R. Cheeseman, G. Scalmani, V. Barone, B. Mennucci, 
 G. A. Petersson, H. Nakatsuji, M. Caricato, X. Li, H. P. Hratchian, 
 A. F. Izmaylov, J. Bloino, G. Zheng, J. L. Sonnenberg, M. Hada, 
 M. Ehara, K. Toyota, R. Fukuda, J. Hasegawa, M. Ishida, T. Nakajima, 
 Y. Honda, O. Kitao, H. Nakai, T. Vreven, J. A. Montgomery, Jr., 
 J. E. Peralta, F. Ogliaro, M. Bearpark, J. J. Heyd, E. Brothers, 
 K. N. Kudin, V. N. Staroverov, T. Keith, R. Kobayashi, J. Normand, 
 K. Raghavachari, A. Rendell, J. C. Burant, S. S. Iyengar, J. Tomasi, 
 M. Cossi, N. Rega, J. M. Millam, M. Klene, J. E. Knox, J. B. Cross, 
 V. Bakken, C. Adamo, J. Jaramillo, R. Gomperts, R. E. Stratmann, 
 O. Yazyev, A. J. Austin, R. Cammi, C. Pomelli, J. W. Ochterski, 
 R. L. Martin, K. Morokuma, V. G. Zakrzewski, G. A. Voth, 
 P. Salvador, J. J. Dannenberg, S. Dapprich, A. D. Daniels, 
 O. Farkas, J. B. Foresman, J. V. Ortiz, J. Cioslowski, 
 and D. J. Fox, Gaussian, Inc., Wallingford CT, 2013.
 
 ******************************************
 Gaussian 09:  ES64L-G09RevD.01 24-Apr-2013
                27-Feb-2020 
 ******************************************
 %nproc=20
 Will use up to   20 processors via shared memory.
 %mem=2gb
 %chk=phenanthroline-1.chk
 --------------------------------------------------------------------
 #p PW91PW91/6-31G(d) 5d TD=(nstate=20) scf(conver=7) gfinput gfprint
 --------------------------------------------------------------------
 1/38=1/1;
 2/12=2,17=6,18=5,40=1/2;
 3/5=1,6=6,7=1,8=1,11=9,16=1,24=110,25=1,30=1,74=608/1,2,8,3;
 4//1;
 5/5=2,6=7,38=5/2;
 8/6=1,10=2,108=20/1;
 9/41=20,42=1,70=2/14;
 6/7=2,8=2,9=2,10=2/1;
 99/5=1,9=1/99;
 Leave Link    1 at Thu Feb 27 01:55:10 2020, MaxMem=   268435456 cpu:         2.2
 (Enter /opt/gaussian/g09/l101.exe)
 ----------------
 phenanthroline-1
 ----------------
 Symbolic Z-matrix:
 Charge =  0 Multiplicity = 1
 C                    -6.03926  -2.3178    0.52561 
 C                    -4.76896  -2.83064   0.68663 
 C                    -3.651    -1.99898   0.46625 
 C                    -3.89714  -0.64665   0.08034 
 C                    -6.16825  -0.97052   0.13714 
 C                    -2.31378  -2.47656   0.62092 
 C                    -2.76056   0.23251  -0.15271 
 C                    -1.44404  -0.29027   0.01942 
 C                    -1.24911  -1.65093   0.4085 
 C                    -0.35918   0.58088  -0.21017 
 H                     0.65999   0.20718  -0.08624 
 C                    -0.60282   1.88392  -0.59035 
 C                    -1.94144   2.29699  -0.7324 
 H                    -2.16277  -3.51772   0.91599 
 H                    -6.92629  -2.93159   0.68631 
 H                    -4.61014  -3.87059   0.98204 
 H                    -7.16513  -0.53822  -0.0016 
 H                    -0.22648  -2.01654   0.52861 
 H                     0.21301   2.58364  -0.77888 
 H                    -2.16403   3.3262   -1.0335 
 N                    -5.14769  -0.1541   -0.07944 
 N                    -2.9903    1.51448  -0.52277 
 
 NAtoms=     22 NQM=       22 NQMF=       0 NMMI=      0 NMMIF=      0
                NMic=       0 NMicF=      0.
                    Isotopes and Nuclear Properties:
 (Nuclear quadrupole moments (NQMom) in fm**2, nuclear magnetic moments (NMagM)
  in nuclear magnetons)

  Atom         1           2           3           4           5           6           7           8           9          10
 IAtWgt=          12          12          12          12          12          12          12          12          12          12
 AtmWgt=  12.0000000  12.0000000  12.0000000  12.0000000  12.0000000  12.0000000  12.0000000  12.0000000  12.0000000  12.0000000
 NucSpn=           0           0           0           0           0           0           0           0           0           0
 AtZEff=   0.0000000   0.0000000   0.0000000   0.0000000   0.0000000   0.0000000   0.0000000   0.0000000   0.0000000   0.0000000
 NQMom=    0.0000000   0.0000000   0.0000000   0.0000000   0.0000000   0.0000000   0.0000000   0.0000000   0.0000000   0.0000000
 NMagM=    0.0000000   0.0000000   0.0000000   0.0000000   0.0000000   0.0000000   0.0000000   0.0000000   0.0000000   0.0000000
 AtZNuc=   6.0000000   6.0000000   6.0000000   6.0000000   6.0000000   6.0000000   6.0000000   6.0000000   6.0000000   6.0000000

  Atom        11          12          13          14          15          16          17          18          19          20
 IAtWgt=           1          12          12           1           1           1           1           1           1           1
 AtmWgt=   1.0078250  12.0000000  12.0000000   1.0078250   1.0078250   1.0078250   1.0078250   1.0078250   1.0078250   1.0078250
 NucSpn=           1           0           0           1           1           1           1           1           1           1
 AtZEff=   0.0000000   0.0000000   0.0000000   0.0000000   0.0000000   0.0000000   0.0000000   0.0000000   0.0000000   0.0000000
 NQMom=    0.0000000   0.0000000   0.0000000   0.0000000   0.0000000   0.0000000   0.0000000   0.0000000   0.0000000   0.0000000
 NMagM=    2.7928460   0.0000000   0.0000000   2.7928460   2.7928460   2.7928460   2.7928460   2.7928460   2.7928460   2.7928460
 AtZNuc=   1.0000000   6.0000000   6.0000000   1.0000000   1.0000000   1.0000000   1.0000000   1.0000000   1.0000000   1.0000000

  Atom        21          22
 IAtWgt=          14          14
 AtmWgt=  14.0030740  14.0030740
 NucSpn=           2           2
 AtZEff=   0.0000000   0.0000000
 NQMom=    2.0440000   2.0440000
 NMagM=    0.4037610   0.4037610
 AtZNuc=   7.0000000   7.0000000
 Leave Link  101 at Thu Feb 27 01:55:10 2020, MaxMem=   268435456 cpu:         2.8
 (Enter /opt/gaussian/g09/l202.exe)
                          Input orientation:                          
 ---------------------------------------------------------------------
 Center     Atomic      Atomic             Coordinates (Angstroms)
 Number     Number       Type             X           Y           Z
 ---------------------------------------------------------------------
      1          6           0       -6.039259   -2.317805    0.525605
      2          6           0       -4.768963   -2.830636    0.686633
      3          6           0       -3.651003   -1.998982    0.466253
      4          6           0       -3.897141   -0.646647    0.080336
      5          6           0       -6.168249   -0.970517    0.137142
      6          6           0       -2.313784   -2.476562    0.620916
      7          6           0       -2.760562    0.232511   -0.152715
      8          6           0       -1.444044   -0.290270    0.019419
      9          6           0       -1.249114   -1.650932    0.408501
     10          6           0       -0.359179    0.580884   -0.210168
     11          1           0        0.659990    0.207180   -0.086244
     12          6           0       -0.602817    1.883918   -0.590348
     13          6           0       -1.941435    2.296993   -0.732399
     14          1           0       -2.162767   -3.517724    0.915990
     15          1           0       -6.926294   -2.931590    0.686307
     16          1           0       -4.610145   -3.870585    0.982040
     17          1           0       -7.165134   -0.538216   -0.001596
     18          1           0       -0.226484   -2.016541    0.528613
     19          1           0        0.213007    2.583638   -0.778876
     20          1           0       -2.164029    3.326203   -1.033495
     21          7           0       -5.147689   -0.154101   -0.079438
     22          7           0       -2.990305    1.514483   -0.522774
 ---------------------------------------------------------------------
                    Distance matrix (angstroms):
                    1          2          3          4          5
     1  C    0.000000
     2  C    1.379339   0.000000
     3  C    2.410174   1.410691   0.000000
     4  C    2.753125   2.428472   1.427699   0.000000
     5  C    1.408094   2.391649   2.739085   2.294788   0.000000
     6  C    3.730073   2.481449   1.428340   2.479482   4.166426
     7  C    4.208810   3.757798   2.481041   1.455693   3.625414
     8  C    5.048080   4.237183   2.826663   2.479597   4.774380
     9  C    4.837760   3.722687   2.427663   2.851022   4.973378
    10  C    6.419273   5.647027   4.236668   3.756115   6.022687
    11  H    7.185391   6.268907   4.874122   4.639420   6.932656
    12  C    6.960943   6.419850   5.048243   4.207868   6.296910
    13  C    6.298499   6.025042   4.776483   3.626340   5.412825
    14  H    4.076690   2.704987   2.173405   3.456799   4.810277
    15  H    1.090591   2.159692   3.412582   3.842386   2.173022
    16  H    2.159126   1.092695   2.165384   3.422750   3.398814
    17  H    2.170823   3.386810   3.834297   3.270817   1.095404
    18  H    5.820577   4.617557   3.425132   3.943512   6.045824
    19  H    8.050878   7.502139   6.122199   5.297764   7.361489
    20  H    7.021611   6.902983   5.728693   4.475247   5.988820
    21  N    2.417145   2.809650   2.437506   1.353514   1.324758
    22  N    5.008158   4.848334   3.709330   2.420037   4.087792
                    6          7          8          9         10
     6  C    0.000000
     7  C    2.852576   0.000000
     8  C    2.428604   1.426937   0.000000
     9  C    1.363932   2.479273   1.428560   0.000000
    10  C    3.722789   2.427201   1.410160   2.481075   0.000000
    11  H    4.067663   3.421292   2.164621   2.709618   1.092574
    12  C    4.838218   2.752187   2.409683   3.729686   1.379055
    13  C    4.975633   2.295449   2.739809   4.167381   2.391922
    14  H    1.092655   3.945092   3.425911   2.139444   4.617331
    15  H    4.635361   5.298001   6.121795   5.826460   7.501209
    16  H    2.710532   4.641554   4.875396   4.068457   6.269581
    17  H    5.261207   4.474048   5.726498   6.033706   6.900501
    18  H    2.139384   3.456008   2.172957   1.092643   2.703705
    19  H    5.826638   3.842133   3.412102   4.634570   2.159131
    20  H    6.035858   3.271476   3.834825   5.261966   3.387053
    21  N    3.730327   2.419342   3.707465   4.204459   4.846351
    22  N    4.206441   1.353949   2.437627   3.730800   2.809297
                   11         12         13         14         15
    11  H    0.000000
    12  C    2.158762   0.000000
    13  C    3.398860   1.408087   0.000000
    14  H    4.779889   5.820673   6.047901   0.000000
    15  H    8.246237   8.050176   7.362039   4.804945   0.000000
    16  H    6.748609   7.186472   6.935440   2.473567   2.516688
    17  H    7.861002   7.019784   5.988281   5.894329   2.501698
    18  H    2.471602   4.075203   4.810175   2.480485   6.763848
    19  H    2.515370   1.091200   2.173924   6.763393   9.139700
    20  H    4.312850   2.171163   1.095208   7.116167   8.049649
    21  N    5.818910   5.007037   4.088310   4.605931   3.385889
    22  N    3.901827   2.416847   1.325289   5.298865   6.059823
                   16         17         18         19         20
    16  H    0.000000
    17  H    4.312794   0.000000
    18  H    4.781167   7.114171   0.000000
    19  H    8.247461   8.049043   4.802533   0.000000
    20  H    7.863817   6.403873   5.893995   2.503305   0.000000
    21  N    3.902300   2.055161   5.296855   6.059826   4.682410
    22  N    5.821280   4.681282   4.605676   3.386722   2.055698
                   21         22
    21  N    0.000000
    22  N    2.763155   0.000000
 Stoichiometry    C12H8N2
 Framework group  C1[X(C12H8N2)]
 Deg. of freedom    60
 Full point group                 C1      NOp   1
 Largest Abelian subgroup         C1      NOp   1
 Largest concise Abelian subgroup C1      NOp   1
                         Standard orientation:                         
 ---------------------------------------------------------------------
 Center     Atomic      Atomic             Coordinates (Angstroms)
 Number     Number       Type             X           Y           Z
 ---------------------------------------------------------------------
      1          6           0       -3.480588   -0.369558   -0.003287
      2          6           0       -2.824167    0.843565    0.001421
      3          6           0       -1.413727    0.870197    0.002296
      4          6           0       -0.727491   -0.381759   -0.000759
      5          6           0       -2.705520   -1.545139   -0.000752
      6          6           0       -0.682744    2.097314    0.004471
      7          6           0        0.728203   -0.381879   -0.000434
      8          6           0        1.412930    0.870035   -0.002987
      9          6           0        0.681175    2.096948   -0.001463
     10          6           0        2.822857    0.844381   -0.004576
     11          1           0        3.373147    1.788254   -0.006071
     12          6           0        3.480354   -0.367835    0.000396
     13          6           0        2.707303   -1.544734    0.003743
     14          1           0       -1.240800    3.036704    0.008210
     15          1           0       -4.569594   -0.428337   -0.002992
     16          1           0       -3.375453    1.786993    0.004624
     17          1           0       -3.200653   -2.522254   -0.000730
     18          1           0        1.239665    3.036073   -0.001458
     19          1           0        4.570103   -0.424056    0.002249
     20          1           0        3.203215   -2.521224    0.007995
     21          7           0       -1.380944   -1.567086   -0.000819
     22          7           0        1.382211   -1.567395    0.000784
 ---------------------------------------------------------------------
 Rotational constants (GHZ):      1.6209255      0.5796049      0.4269418
 Leave Link  202 at Thu Feb 27 01:55:10 2020, MaxMem=   268435456 cpu:         1.1
 (Enter /opt/gaussian/g09/l301.exe)
 Standard basis: 6-31G(d) (5D, 7F)
 Ernie: Thresh=  0.10000D-02 Tol=  0.10000D-05 Strict=F.
 AO basis set in the form of general basis input (Overlap normalization):
      1 0
 S   6 1.00       0.000000000000
      0.3047524880D+04  0.1834737132D-02
      0.4573695180D+03  0.1403732281D-01
      0.1039486850D+03  0.6884262226D-01
      0.2921015530D+02  0.2321844432D+00
      0.9286662960D+01  0.4679413484D+00
      0.3163926960D+01  0.3623119853D+00
 SP   3 1.00       0.000000000000
      0.7868272350D+01 -0.1193324198D+00  0.6899906659D-01
      0.1881288540D+01 -0.1608541517D+00  0.3164239610D+00
      0.5442492580D+00  0.1143456438D+01  0.7443082909D+00
 SP   1 1.00       0.000000000000
      0.1687144782D+00  0.1000000000D+01  0.1000000000D+01
 D   1 1.00       0.000000000000
      0.8000000000D+00  0.1000000000D+01
 ****
      2 0
 S   6 1.00       0.000000000000
      0.3047524880D+04  0.1834737132D-02
      0.4573695180D+03  0.1403732281D-01
      0.1039486850D+03  0.6884262226D-01
      0.2921015530D+02  0.2321844432D+00
      0.9286662960D+01  0.4679413484D+00
      0.3163926960D+01  0.3623119853D+00
 SP   3 1.00       0.000000000000
      0.7868272350D+01 -0.1193324198D+00  0.6899906659D-01
      0.1881288540D+01 -0.1608541517D+00  0.3164239610D+00
      0.5442492580D+00  0.1143456438D+01  0.7443082909D+00
 SP   1 1.00       0.000000000000
      0.1687144782D+00  0.1000000000D+01  0.1000000000D+01
 D   1 1.00       0.000000000000
      0.8000000000D+00  0.1000000000D+01
 ****
      3 0
 S   6 1.00       0.000000000000
      0.3047524880D+04  0.1834737132D-02
      0.4573695180D+03  0.1403732281D-01
      0.1039486850D+03  0.6884262226D-01
      0.2921015530D+02  0.2321844432D+00
      0.9286662960D+01  0.4679413484D+00
      0.3163926960D+01  0.3623119853D+00
 SP   3 1.00       0.000000000000
      0.7868272350D+01 -0.1193324198D+00  0.6899906659D-01
      0.1881288540D+01 -0.1608541517D+00  0.3164239610D+00
      0.5442492580D+00  0.1143456438D+01  0.7443082909D+00
 SP   1 1.00       0.000000000000
      0.1687144782D+00  0.1000000000D+01  0.1000000000D+01
 D   1 1.00       0.000000000000
      0.8000000000D+00  0.1000000000D+01
 ****
      4 0
 S   6 1.00       0.000000000000
      0.3047524880D+04  0.1834737132D-02
      0.4573695180D+03  0.1403732281D-01
      0.1039486850D+03  0.6884262226D-01
      0.2921015530D+02  0.2321844432D+00
      0.9286662960D+01  0.4679413484D+00
      0.3163926960D+01  0.3623119853D+00
 SP   3 1.00       0.000000000000
      0.7868272350D+01 -0.1193324198D+00  0.6899906659D-01
      0.1881288540D+01 -0.1608541517D+00  0.3164239610D+00
      0.5442492580D+00  0.1143456438D+01  0.7443082909D+00
 SP   1 1.00       0.000000000000
      0.1687144782D+00  0.1000000000D+01  0.1000000000D+01
 D   1 1.00       0.000000000000
      0.8000000000D+00  0.1000000000D+01
 ****
      5 0
 S   6 1.00       0.000000000000
      0.3047524880D+04  0.1834737132D-02
      0.4573695180D+03  0.1403732281D-01
      0.1039486850D+03  0.6884262226D-01
      0.2921015530D+02  0.2321844432D+00
      0.9286662960D+01  0.4679413484D+00
      0.3163926960D+01  0.3623119853D+00
 SP   3 1.00       0.000000000000
      0.7868272350D+01 -0.1193324198D+00  0.6899906659D-01
      0.1881288540D+01 -0.1608541517D+00  0.3164239610D+00
      0.5442492580D+00  0.1143456438D+01  0.7443082909D+00
 SP   1 1.00       0.000000000000
      0.1687144782D+00  0.1000000000D+01  0.1000000000D+01
 D   1 1.00       0.000000000000
      0.8000000000D+00  0.1000000000D+01
 ****
      6 0
 S   6 1.00       0.000000000000
      0.3047524880D+04  0.1834737132D-02
      0.4573695180D+03  0.1403732281D-01
      0.1039486850D+03  0.6884262226D-01
      0.2921015530D+02  0.2321844432D+00
      0.9286662960D+01  0.4679413484D+00
      0.3163926960D+01  0.3623119853D+00
 SP   3 1.00       0.000000000000
      0.7868272350D+01 -0.1193324198D+00  0.6899906659D-01
      0.1881288540D+01 -0.1608541517D+00  0.3164239610D+00
      0.5442492580D+00  0.1143456438D+01  0.7443082909D+00
 SP   1 1.00       0.000000000000
      0.1687144782D+00  0.1000000000D+01  0.1000000000D+01
 D   1 1.00       0.000000000000
      0.8000000000D+00  0.1000000000D+01
 ****
      7 0
 S   6 1.00       0.000000000000
      0.3047524880D+04  0.1834737132D-02
      0.4573695180D+03  0.1403732281D-01
      0.1039486850D+03  0.6884262226D-01
      0.2921015530D+02  0.2321844432D+00
      0.9286662960D+01  0.4679413484D+00
      0.3163926960D+01  0.3623119853D+00
 SP   3 1.00       0.000000000000
      0.7868272350D+01 -0.1193324198D+00  0.6899906659D-01
      0.1881288540D+01 -0.1608541517D+00  0.3164239610D+00
      0.5442492580D+00  0.1143456438D+01  0.7443082909D+00
 SP   1 1.00       0.000000000000
      0.1687144782D+00  0.1000000000D+01  0.1000000000D+01
 D   1 1.00       0.000000000000
      0.8000000000D+00  0.1000000000D+01
 ****
      8 0
 S   6 1.00       0.000000000000
      0.3047524880D+04  0.1834737132D-02
      0.4573695180D+03  0.1403732281D-01
      0.1039486850D+03  0.6884262226D-01
      0.2921015530D+02  0.2321844432D+00
      0.9286662960D+01  0.4679413484D+00
      0.3163926960D+01  0.3623119853D+00
 SP   3 1.00       0.000000000000
      0.7868272350D+01 -0.1193324198D+00  0.6899906659D-01
      0.1881288540D+01 -0.1608541517D+00  0.3164239610D+00
      0.5442492580D+00  0.1143456438D+01  0.7443082909D+00
 SP   1 1.00       0.000000000000
      0.1687144782D+00  0.1000000000D+01  0.1000000000D+01
 D   1 1.00       0.000000000000
      0.8000000000D+00  0.1000000000D+01
 ****
      9 0
 S   6 1.00       0.000000000000
      0.3047524880D+04  0.1834737132D-02
      0.4573695180D+03  0.1403732281D-01
      0.1039486850D+03  0.6884262226D-01
      0.2921015530D+02  0.2321844432D+00
      0.9286662960D+01  0.4679413484D+00
      0.3163926960D+01  0.3623119853D+00
 SP   3 1.00       0.000000000000
      0.7868272350D+01 -0.1193324198D+00  0.6899906659D-01
      0.1881288540D+01 -0.1608541517D+00  0.3164239610D+00
      0.5442492580D+00  0.1143456438D+01  0.7443082909D+00
 SP   1 1.00       0.000000000000
      0.1687144782D+00  0.1000000000D+01  0.1000000000D+01
 D   1 1.00       0.000000000000
      0.8000000000D+00  0.1000000000D+01
 ****
     10 0
 S   6 1.00       0.000000000000
      0.3047524880D+04  0.1834737132D-02
      0.4573695180D+03  0.1403732281D-01
      0.1039486850D+03  0.6884262226D-01
      0.2921015530D+02  0.2321844432D+00
      0.9286662960D+01  0.4679413484D+00
      0.3163926960D+01  0.3623119853D+00
 SP   3 1.00       0.000000000000
      0.7868272350D+01 -0.1193324198D+00  0.6899906659D-01
      0.1881288540D+01 -0.1608541517D+00  0.3164239610D+00
      0.5442492580D+00  0.1143456438D+01  0.7443082909D+00
 SP   1 1.00       0.000000000000
      0.1687144782D+00  0.1000000000D+01  0.1000000000D+01
 D   1 1.00       0.000000000000
      0.8000000000D+00  0.1000000000D+01
 ****
     11 0
 S   3 1.00       0.000000000000
      0.1873113696D+02  0.3349460434D-01
      0.2825394365D+01  0.2347269535D+00
      0.6401216923D+00  0.8137573261D+00
 S   1 1.00       0.000000000000
      0.1612777588D+00  0.1000000000D+01
 ****
     12 0
 S   6 1.00       0.000000000000
      0.3047524880D+04  0.1834737132D-02
      0.4573695180D+03  0.1403732281D-01
      0.1039486850D+03  0.6884262226D-01
      0.2921015530D+02  0.2321844432D+00
      0.9286662960D+01  0.4679413484D+00
      0.3163926960D+01  0.3623119853D+00
 SP   3 1.00       0.000000000000
      0.7868272350D+01 -0.1193324198D+00  0.6899906659D-01
      0.1881288540D+01 -0.1608541517D+00  0.3164239610D+00
      0.5442492580D+00  0.1143456438D+01  0.7443082909D+00
 SP   1 1.00       0.000000000000
      0.1687144782D+00  0.1000000000D+01  0.1000000000D+01
 D   1 1.00       0.000000000000
      0.8000000000D+00  0.1000000000D+01
 ****
     13 0
 S   6 1.00       0.000000000000
      0.3047524880D+04  0.1834737132D-02
      0.4573695180D+03  0.1403732281D-01
      0.1039486850D+03  0.6884262226D-01
      0.2921015530D+02  0.2321844432D+00
      0.9286662960D+01  0.4679413484D+00
      0.3163926960D+01  0.3623119853D+00
 SP   3 1.00       0.000000000000
      0.7868272350D+01 -0.1193324198D+00  0.6899906659D-01
      0.1881288540D+01 -0.1608541517D+00  0.3164239610D+00
      0.5442492580D+00  0.1143456438D+01  0.7443082909D+00
 SP   1 1.00       0.000000000000
      0.1687144782D+00  0.1000000000D+01  0.1000000000D+01
 D   1 1.00       0.000000000000
      0.8000000000D+00  0.1000000000D+01
 ****
     14 0
 S   3 1.00       0.000000000000
      0.1873113696D+02  0.3349460434D-01
      0.2825394365D+01  0.2347269535D+00
      0.6401216923D+00  0.8137573261D+00
 S   1 1.00       0.000000000000
      0.1612777588D+00  0.1000000000D+01
 ****
     15 0
 S   3 1.00       0.000000000000
      0.1873113696D+02  0.3349460434D-01
      0.2825394365D+01  0.2347269535D+00
      0.6401216923D+00  0.8137573261D+00
 S   1 1.00       0.000000000000
      0.1612777588D+00  0.1000000000D+01
 ****
     16 0
 S   3 1.00       0.000000000000
      0.1873113696D+02  0.3349460434D-01
      0.2825394365D+01  0.2347269535D+00
      0.6401216923D+00  0.8137573261D+00
 S   1 1.00       0.000000000000
      0.1612777588D+00  0.1000000000D+01
 ****
     17 0
 S   3 1.00       0.000000000000
      0.1873113696D+02  0.3349460434D-01
      0.2825394365D+01  0.2347269535D+00
      0.6401216923D+00  0.8137573261D+00
 S   1 1.00       0.000000000000
      0.1612777588D+00  0.1000000000D+01
 ****
     18 0
 S   3 1.00       0.000000000000
      0.1873113696D+02  0.3349460434D-01
      0.2825394365D+01  0.2347269535D+00
      0.6401216923D+00  0.8137573261D+00
 S   1 1.00       0.000000000000
      0.1612777588D+00  0.1000000000D+01
 ****
     19 0
 S   3 1.00       0.000000000000
      0.1873113696D+02  0.3349460434D-01
      0.2825394365D+01  0.2347269535D+00
      0.6401216923D+00  0.8137573261D+00
 S   1 1.00       0.000000000000
      0.1612777588D+00  0.1000000000D+01
 ****
     20 0
 S   3 1.00       0.000000000000
      0.1873113696D+02  0.3349460434D-01
      0.2825394365D+01  0.2347269535D+00
      0.6401216923D+00  0.8137573261D+00
 S   1 1.00       0.000000000000
      0.1612777588D+00  0.1000000000D+01
 ****
     21 0
 S   6 1.00       0.000000000000
      0.4173511460D+04  0.1834772160D-02
      0.6274579110D+03  0.1399462700D-01
      0.1429020930D+03  0.6858655181D-01
      0.4023432930D+02  0.2322408730D+00
      0.1282021290D+02  0.4690699481D+00
      0.4390437010D+01  0.3604551991D+00
 SP   3 1.00       0.000000000000
      0.1162636186D+02 -0.1149611817D+00  0.6757974388D-01
      0.2716279807D+01 -0.1691174786D+00  0.3239072959D+00
      0.7722183966D+00  0.1145851947D+01  0.7408951398D+00
 SP   1 1.00       0.000000000000
      0.2120314975D+00  0.1000000000D+01  0.1000000000D+01
 D   1 1.00       0.000000000000
      0.8000000000D+00  0.1000000000D+01
 ****
     22 0
 S   6 1.00       0.000000000000
      0.4173511460D+04  0.1834772160D-02
      0.6274579110D+03  0.1399462700D-01
      0.1429020930D+03  0.6858655181D-01
      0.4023432930D+02  0.2322408730D+00
      0.1282021290D+02  0.4690699481D+00
      0.4390437010D+01  0.3604551991D+00
 SP   3 1.00       0.000000000000
      0.1162636186D+02 -0.1149611817D+00  0.6757974388D-01
      0.2716279807D+01 -0.1691174786D+00  0.3239072959D+00
      0.7722183966D+00  0.1145851947D+01  0.7408951398D+00
 SP   1 1.00       0.000000000000
      0.2120314975D+00  0.1000000000D+01  0.1000000000D+01
 D   1 1.00       0.000000000000
      0.8000000000D+00  0.1000000000D+01
 ****

 AO basis set (Overlap normalization):
 Atom C1       Shell     1 S   6     bf    1 -     1         -6.577358502818         -0.698362860822         -0.006211502596
      0.3047524880D+04  0.1834737132D-02
      0.4573695180D+03  0.1403732281D-01
      0.1039486850D+03  0.6884262226D-01
      0.2921015530D+02  0.2321844432D+00
      0.9286662960D+01  0.4679413484D+00
      0.3163926960D+01  0.3623119853D+00
 Atom C1       Shell     2 SP   3    bf    2 -     5         -6.577358502818         -0.698362860822         -0.006211502596
      0.7868272350D+01 -0.1193324198D+00  0.6899906659D-01
      0.1881288540D+01 -0.1608541517D+00  0.3164239610D+00
      0.5442492580D+00  0.1143456438D+01  0.7443082909D+00
 Atom C1       Shell     3 SP   1    bf    6 -     9         -6.577358502818         -0.698362860822         -0.006211502596
      0.1687144782D+00  0.1000000000D+01  0.1000000000D+01
 Atom C1       Shell     4 D   1     bf   10 -    14         -6.577358502818         -0.698362860822         -0.006211502596
      0.8000000000D+00  0.1000000000D+01
 Atom C2       Shell     5 S   6     bf   15 -    15         -5.336902349663          1.594106096110          0.002684684638
      0.3047524880D+04  0.1834737132D-02
      0.4573695180D+03  0.1403732281D-01
      0.1039486850D+03  0.6884262226D-01
      0.2921015530D+02  0.2321844432D+00
      0.9286662960D+01  0.4679413484D+00
      0.3163926960D+01  0.3623119853D+00
 Atom C2       Shell     6 SP   3    bf   16 -    19         -5.336902349663          1.594106096110          0.002684684638
      0.7868272350D+01 -0.1193324198D+00  0.6899906659D-01
      0.1881288540D+01 -0.1608541517D+00  0.3164239610D+00
      0.5442492580D+00  0.1143456438D+01  0.7443082909D+00
 Atom C2       Shell     7 SP   1    bf   20 -    23         -5.336902349663          1.594106096110          0.002684684638
      0.1687144782D+00  0.1000000000D+01  0.1000000000D+01
 Atom C2       Shell     8 D   1     bf   24 -    28         -5.336902349663          1.594106096110          0.002684684638
      0.8000000000D+00  0.1000000000D+01
 Atom C3       Shell     9 S   6     bf   29 -    29         -2.671557711171          1.644434450382          0.004338507563
      0.3047524880D+04  0.1834737132D-02
      0.4573695180D+03  0.1403732281D-01
      0.1039486850D+03  0.6884262226D-01
      0.2921015530D+02  0.2321844432D+00
      0.9286662960D+01  0.4679413484D+00
      0.3163926960D+01  0.3623119853D+00
 Atom C3       Shell    10 SP   3    bf   30 -    33         -2.671557711171          1.644434450382          0.004338507563
      0.7868272350D+01 -0.1193324198D+00  0.6899906659D-01
      0.1881288540D+01 -0.1608541517D+00  0.3164239610D+00
      0.5442492580D+00  0.1143456438D+01  0.7443082909D+00
 Atom C3       Shell    11 SP   1    bf   34 -    37         -2.671557711171          1.644434450382          0.004338507563
      0.1687144782D+00  0.1000000000D+01  0.1000000000D+01
 Atom C3       Shell    12 D   1     bf   38 -    42         -2.671557711171          1.644434450382          0.004338507563
      0.8000000000D+00  0.1000000000D+01
 Atom C4       Shell    13 S   6     bf   43 -    43         -1.374758630800         -0.721420755421         -0.001434488279
      0.3047524880D+04  0.1834737132D-02
      0.4573695180D+03  0.1403732281D-01
      0.1039486850D+03  0.6884262226D-01
      0.2921015530D+02  0.2321844432D+00
      0.9286662960D+01  0.4679413484D+00
      0.3163926960D+01  0.3623119853D+00
 Atom C4       Shell    14 SP   3    bf   44 -    47         -1.374758630800         -0.721420755421         -0.001434488279
      0.7868272350D+01 -0.1193324198D+00  0.6899906659D-01
      0.1881288540D+01 -0.1608541517D+00  0.3164239610D+00
      0.5442492580D+00  0.1143456438D+01  0.7443082909D+00
 Atom C4       Shell    15 SP   1    bf   48 -    51         -1.374758630800         -0.721420755421         -0.001434488279
      0.1687144782D+00  0.1000000000D+01  0.1000000000D+01
 Atom C4       Shell    16 D   1     bf   52 -    56         -1.374758630800         -0.721420755421         -0.001434488279
      0.8000000000D+00  0.1000000000D+01
 Atom C5       Shell    17 S   6     bf   57 -    57         -5.112691614312         -2.919888885157         -0.001421461909
      0.3047524880D+04  0.1834737132D-02
      0.4573695180D+03  0.1403732281D-01
      0.1039486850D+03  0.6884262226D-01
      0.2921015530D+02  0.2321844432D+00
      0.9286662960D+01  0.4679413484D+00
      0.3163926960D+01  0.3623119853D+00
 Atom C5       Shell    18 SP   3    bf   58 -    61         -5.112691614312         -2.919888885157         -0.001421461909
      0.7868272350D+01 -0.1193324198D+00  0.6899906659D-01
      0.1881288540D+01 -0.1608541517D+00  0.3164239610D+00
      0.5442492580D+00  0.1143456438D+01  0.7443082909D+00
 Atom C5       Shell    19 SP   1    bf   62 -    65         -5.112691614312         -2.919888885157         -0.001421461909
      0.1687144782D+00  0.1000000000D+01  0.1000000000D+01
 Atom C5       Shell    20 D   1     bf   66 -    70         -5.112691614312         -2.919888885157         -0.001421461909
      0.8000000000D+00  0.1000000000D+01
 Atom C6       Shell    21 S   6     bf   71 -    71         -1.290199120758          3.963348579636          0.008448779776
      0.3047524880D+04  0.1834737132D-02
      0.4573695180D+03  0.1403732281D-01
      0.1039486850D+03  0.6884262226D-01
      0.2921015530D+02  0.2321844432D+00
      0.9286662960D+01  0.4679413484D+00
      0.3163926960D+01  0.3623119853D+00
 Atom C6       Shell    22 SP   3    bf   72 -    75         -1.290199120758          3.963348579636          0.008448779776
      0.7868272350D+01 -0.1193324198D+00  0.6899906659D-01
      0.1881288540D+01 -0.1608541517D+00  0.3164239610D+00
      0.5442492580D+00  0.1143456438D+01  0.7443082909D+00
 Atom C6       Shell    23 SP   1    bf   76 -    79         -1.290199120758          3.963348579636          0.008448779776
      0.1687144782D+00  0.1000000000D+01  0.1000000000D+01
 Atom C6       Shell    24 D   1     bf   80 -    84         -1.290199120758          3.963348579636          0.008448779776
      0.8000000000D+00  0.1000000000D+01
 Atom C7       Shell    25 S   6     bf   85 -    85          1.376103303943         -0.721646166987         -0.000819777244
      0.3047524880D+04  0.1834737132D-02
      0.4573695180D+03  0.1403732281D-01
      0.1039486850D+03  0.6884262226D-01
      0.2921015530D+02  0.2321844432D+00
      0.9286662960D+01  0.4679413484D+00
      0.3163926960D+01  0.3623119853D+00
 Atom C7       Shell    26 SP   3    bf   86 -    89          1.376103303943         -0.721646166987         -0.000819777244
      0.7868272350D+01 -0.1193324198D+00  0.6899906659D-01
      0.1881288540D+01 -0.1608541517D+00  0.3164239610D+00
      0.5442492580D+00  0.1143456438D+01  0.7443082909D+00
 Atom C7       Shell    27 SP   1    bf   90 -    93          1.376103303943         -0.721646166987         -0.000819777244
      0.1687144782D+00  0.1000000000D+01  0.1000000000D+01
 Atom C7       Shell    28 D   1     bf   94 -    98          1.376103303943         -0.721646166987         -0.000819777244
      0.8000000000D+00  0.1000000000D+01
 Atom C8       Shell    29 S   6     bf   99 -    99          2.670051656667          1.644128632574         -0.005643675835
      0.3047524880D+04  0.1834737132D-02
      0.4573695180D+03  0.1403732281D-01
      0.1039486850D+03  0.6884262226D-01
      0.2921015530D+02  0.2321844432D+00
      0.9286662960D+01  0.4679413484D+00
      0.3163926960D+01  0.3623119853D+00
 Atom C8       Shell    30 SP   3    bf  100 -   103          2.670051656667          1.644128632574         -0.005643675835
      0.7868272350D+01 -0.1193324198D+00  0.6899906659D-01
      0.1881288540D+01 -0.1608541517D+00  0.3164239610D+00
      0.5442492580D+00  0.1143456438D+01  0.7443082909D+00
 Atom C8       Shell    31 SP   1    bf  104 -   107          2.670051656667          1.644128632574         -0.005643675835
      0.1687144782D+00  0.1000000000D+01  0.1000000000D+01
 Atom C8       Shell    32 D   1     bf  108 -   112          2.670051656667          1.644128632574         -0.005643675835
      0.8000000000D+00  0.1000000000D+01
 Atom C9       Shell    33 S   6     bf  113 -   113          1.287233493414          3.962656642377         -0.002764049834
      0.3047524880D+04  0.1834737132D-02
      0.4573695180D+03  0.1403732281D-01
      0.1039486850D+03  0.6884262226D-01
      0.2921015530D+02  0.2321844432D+00
      0.9286662960D+01  0.4679413484D+00
      0.3163926960D+01  0.3623119853D+00
 Atom C9       Shell    34 SP   3    bf  114 -   117          1.287233493414          3.962656642377         -0.002764049834
      0.7868272350D+01 -0.1193324198D+00  0.6899906659D-01
      0.1881288540D+01 -0.1608541517D+00  0.3164239610D+00
      0.5442492580D+00  0.1143456438D+01  0.7443082909D+00
 Atom C9       Shell    35 SP   1    bf  118 -   121          1.287233493414          3.962656642377         -0.002764049834
      0.1687144782D+00  0.1000000000D+01  0.1000000000D+01
 Atom C9       Shell    36 D   1     bf  122 -   126          1.287233493414          3.962656642377         -0.002764049834
      0.8000000000D+00  0.1000000000D+01
 Atom C10      Shell    37 S   6     bf  127 -   127          5.334425789476          1.595648147565         -0.008646688665
      0.3047524880D+04  0.1834737132D-02
      0.4573695180D+03  0.1403732281D-01
      0.1039486850D+03  0.6884262226D-01
      0.2921015530D+02  0.2321844432D+00
      0.9286662960D+01  0.4679413484D+00
      0.3163926960D+01  0.3623119853D+00
 Atom C10      Shell    38 SP   3    bf  128 -   131          5.334425789476          1.595648147565         -0.008646688665
      0.7868272350D+01 -0.1193324198D+00  0.6899906659D-01
      0.1881288540D+01 -0.1608541517D+00  0.3164239610D+00
      0.5442492580D+00  0.1143456438D+01  0.7443082909D+00
 Atom C10      Shell    39 SP   1    bf  132 -   135          5.334425789476          1.595648147565         -0.008646688665
      0.1687144782D+00  0.1000000000D+01  0.1000000000D+01
 Atom C10      Shell    40 D   1     bf  136 -   140          5.334425789476          1.595648147565         -0.008646688665
      0.8000000000D+00  0.1000000000D+01
 Atom H11      Shell    41 S   3     bf  141 -   141          6.374323729300          3.379309969263         -0.011472087206
      0.1873113696D+02  0.3349460434D-01
      0.2825394365D+01  0.2347269535D+00
      0.6401216923D+00  0.8137573261D+00
 Atom H11      Shell    42 S   1     bf  142 -   142          6.374323729300          3.379309969263         -0.011472087206
      0.1612777588D+00  0.1000000000D+01
 Atom C12      Shell    43 S   6     bf  143 -   143          6.576915016688         -0.695107119882          0.000748144524
      0.3047524880D+04  0.1834737132D-02
      0.4573695180D+03  0.1403732281D-01
      0.1039486850D+03  0.6884262226D-01
      0.2921015530D+02  0.2321844432D+00
      0.9286662960D+01  0.4679413484D+00
      0.3163926960D+01  0.3623119853D+00
 Atom C12      Shell    44 SP   3    bf  144 -   147          6.576915016688         -0.695107119882          0.000748144524
      0.7868272350D+01 -0.1193324198D+00  0.6899906659D-01
      0.1881288540D+01 -0.1608541517D+00  0.3164239610D+00
      0.5442492580D+00  0.1143456438D+01  0.7443082909D+00
 Atom C12      Shell    45 SP   1    bf  148 -   151          6.576915016688         -0.695107119882          0.000748144524
      0.1687144782D+00  0.1000000000D+01  0.1000000000D+01
 Atom C12      Shell    46 D   1     bf  152 -   156          6.576915016688         -0.695107119882          0.000748144524
      0.8000000000D+00  0.1000000000D+01
 Atom C13      Shell    47 S   6     bf  157 -   157          5.116061274686         -2.919123619430          0.007073061315
      0.3047524880D+04  0.1834737132D-02
      0.4573695180D+03  0.1403732281D-01
      0.1039486850D+03  0.6884262226D-01
      0.2921015530D+02  0.2321844432D+00
      0.9286662960D+01  0.4679413484D+00
      0.3163926960D+01  0.3623119853D+00
 Atom C13      Shell    48 SP   3    bf  158 -   161          5.116061274686         -2.919123619430          0.007073061315
      0.7868272350D+01 -0.1193324198D+00  0.6899906659D-01
      0.1881288540D+01 -0.1608541517D+00  0.3164239610D+00
      0.5442492580D+00  0.1143456438D+01  0.7443082909D+00
 Atom C13      Shell    49 SP   1    bf  162 -   165          5.116061274686         -2.919123619430          0.007073061315
      0.1687144782D+00  0.1000000000D+01  0.1000000000D+01
 Atom C13      Shell    50 D   1     bf  166 -   170          5.116061274686         -2.919123619430          0.007073061315
      0.8000000000D+00  0.1000000000D+01
 Atom H14      Shell    51 S   3     bf  171 -   171         -2.344772538480          5.738538248027          0.015515089838
      0.1873113696D+02  0.3349460434D-01
      0.2825394365D+01  0.2347269535D+00
      0.6401216923D+00  0.8137573261D+00
 Atom H14      Shell    52 S   1     bf  172 -   172         -2.344772538480          5.738538248027          0.015515089838
      0.1612777588D+00  0.1000000000D+01
 Atom H15      Shell    53 S   3     bf  173 -   173         -8.635281305033         -0.809439499946         -0.005654847234
      0.1873113696D+02  0.3349460434D-01
      0.2825394365D+01  0.2347269535D+00
      0.6401216923D+00  0.8137573261D+00
 Atom H15      Shell    54 S   1     bf  174 -   174         -8.635281305033         -0.809439499946         -0.005654847234
      0.1612777588D+00  0.1000000000D+01
 Atom H16      Shell    55 S   3     bf  175 -   175         -6.378682123152          3.376927022217          0.008738851096
      0.1873113696D+02  0.3349460434D-01
      0.2825394365D+01  0.2347269535D+00
      0.6401216923D+00  0.8137573261D+00
 Atom H16      Shell    56 S   1     bf  176 -   176         -6.378682123152          3.376927022217          0.008738851096
      0.1612777588D+00  0.1000000000D+01
 Atom H17      Shell    57 S   3     bf  177 -   177         -6.048357158285         -4.766369154484         -0.001379023805
      0.1873113696D+02  0.3349460434D-01
      0.2825394365D+01  0.2347269535D+00
      0.6401216923D+00  0.8137573261D+00
 Atom H17      Shell    58 S   1     bf  178 -   178         -6.048357158285         -4.766369154484         -0.001379023805
      0.1612777588D+00  0.1000000000D+01
 Atom H18      Shell    59 S   3     bf  179 -   179          2.342628110618          5.737347059638         -0.002755040849
      0.1873113696D+02  0.3349460434D-01
      0.2825394365D+01  0.2347269535D+00
      0.6401216923D+00  0.8137573261D+00
 Atom H18      Shell    60 S   1     bf  180 -   180          2.342628110618          5.737347059638         -0.002755040849
      0.1612777588D+00  0.1000000000D+01
 Atom H19      Shell    61 S   3     bf  181 -   181          8.636243212295         -0.801348807525          0.004250049754
      0.1873113696D+02  0.3349460434D-01
      0.2825394365D+01  0.2347269535D+00
      0.6401216923D+00  0.8137573261D+00
 Atom H19      Shell    62 S   1     bf  182 -   182          8.636243212295         -0.801348807525          0.004250049754
      0.1612777588D+00  0.1000000000D+01
 Atom H20      Shell    63 S   3     bf  183 -   183          6.053198236481         -4.764423517434          0.015107752910
      0.1873113696D+02  0.3349460434D-01
      0.2825394365D+01  0.2347269535D+00
      0.6401216923D+00  0.8137573261D+00
 Atom H20      Shell    64 S   1     bf  184 -   184          6.053198236481         -4.764423517434          0.015107752910
      0.1612777588D+00  0.1000000000D+01
 Atom N21      Shell    65 S   6     bf  185 -   185         -2.609605404320         -2.961363664275         -0.001547499008
      0.4173511460D+04  0.1834772160D-02
      0.6274579110D+03  0.1399462700D-01
      0.1429020930D+03  0.6858655181D-01
      0.4023432930D+02  0.2322408730D+00
      0.1282021290D+02  0.4690699481D+00
      0.4390437010D+01  0.3604551991D+00
 Atom N21      Shell    66 SP   3    bf  186 -   189         -2.609605404320         -2.961363664275         -0.001547499008
      0.1162636186D+02 -0.1149611817D+00  0.6757974388D-01
      0.2716279807D+01 -0.1691174786D+00  0.3239072959D+00
      0.7722183966D+00  0.1145851947D+01  0.7408951398D+00
 Atom N21      Shell    67 SP   1    bf  190 -   193         -2.609605404320         -2.961363664275         -0.001547499008
      0.2120314975D+00  0.1000000000D+01  0.1000000000D+01
 Atom N21      Shell    68 D   1     bf  194 -   198         -2.609605404320         -2.961363664275         -0.001547499008
      0.8000000000D+00  0.1000000000D+01
 Atom N22      Shell    69 S   6     bf  199 -   199          2.612000290628         -2.961947787926          0.001481792546
      0.4173511460D+04  0.1834772160D-02
      0.6274579110D+03  0.1399462700D-01
      0.1429020930D+03  0.6858655181D-01
      0.4023432930D+02  0.2322408730D+00
      0.1282021290D+02  0.4690699481D+00
      0.4390437010D+01  0.3604551991D+00
 Atom N22      Shell    70 SP   3    bf  200 -   203          2.612000290628         -2.961947787926          0.001481792546
      0.1162636186D+02 -0.1149611817D+00  0.6757974388D-01
      0.2716279807D+01 -0.1691174786D+00  0.3239072959D+00
      0.7722183966D+00  0.1145851947D+01  0.7408951398D+00
 Atom N22      Shell    71 SP   1    bf  204 -   207          2.612000290628         -2.961947787926          0.001481792546
      0.2120314975D+00  0.1000000000D+01  0.1000000000D+01
 Atom N22      Shell    72 D   1     bf  208 -   212          2.612000290628         -2.961947787926          0.001481792546
      0.8000000000D+00  0.1000000000D+01
 There are   226 symmetry adapted cartesian basis functions of A   symmetry.
 There are   212 symmetry adapted basis functions of A   symmetry.
   212 basis functions,   424 primitive gaussians,   226 cartesian basis functions
    47 alpha electrons       47 beta electrons
       nuclear repulsion energy       785.8898518515 Hartrees.
 IExCor=  608 DFT=T Ex=PW91 Corr=PW91 ExCW=0 ScaHFX=  0.000000
 ScaDFX=  1.000000  1.000000  1.000000  1.000000 ScalE2=  1.000000  1.000000
 IRadAn=      0 IRanWt=     -1 IRanGd=            0 ICorTp=0 IEmpDi=  4
 NAtoms=   22 NActive=   22 NUniq=   22 SFac= 1.00D+00 NAtFMM=   60 NAOKFM=F Big=F
 Integral buffers will be    131072 words long.
 Regular integral format.
 Two-electron integral symmetry is turned on.
 Leave Link  301 at Thu Feb 27 01:55:11 2020, MaxMem=   268435456 cpu:         1.8
 (Enter /opt/gaussian/g09/l302.exe)
 NPDir=0 NMtPBC=     1 NCelOv=     1 NCel=       1 NClECP=     1 NCelD=      1
         NCelK=      1 NCelE2=     1 NClLst=     1 CellRange=     0.0.
 One-electron integrals computed using PRISM.
 NBasis=   212 RedAO= T EigKep=  3.25D-04  NBF=   212
 NBsUse=   212 1.00D-06 EigRej= -1.00D+00 NBFU=   212
 Precomputing XC quadrature grid using
 IXCGrd= 4 IRadAn=           0 IRanWt=          -1 IRanGd=           0 AccXCQ= 0.00D+00.
 Generated NRdTot=       0 NPtTot=           0 NUsed=           0 NTot=          32
 NSgBfM=   225   225   225   225   225 MxSgAt=    22 MxSgA2=    22.
 Leave Link  302 at Thu Feb 27 01:55:13 2020, MaxMem=   268435456 cpu:        31.8
 (Enter /opt/gaussian/g09/l308.exe)
 Leave Link  308 at Thu Feb 27 01:55:13 2020, MaxMem=   268435456 cpu:         4.3
 (Enter /opt/gaussian/g09/l303.exe)
 DipDrv:  MaxL=1.
 Leave Link  303 at Thu Feb 27 01:55:13 2020, MaxMem=   268435456 cpu:         3.2
 (Enter /opt/gaussian/g09/l401.exe)
 ExpMin= 1.61D-01 ExpMax= 4.17D+03 ExpMxC= 6.27D+02 IAcc=1 IRadAn=         1 AccDes= 0.00D+00
 Harris functional with IExCor=  608 and IRadAn=       1 diagonalized for initial guess.
 HarFok:  IExCor=  608 AccDes= 0.00D+00 IRadAn=         1 IDoV= 1 UseB2=F ITyADJ=14
 ICtDFT=  3500011 ScaDFX=  1.000000  1.000000  1.000000  1.000000
 FoFCou: FMM=F IPFlag=           0 FMFlag=      100000 FMFlg1=           0
         NFxFlg=           0 DoJE=T BraDBF=F KetDBF=T FulRan=T
         wScrn=  0.000000 ICntrl=     500 IOpCl=  0 I1Cent=   200000004 NGrid=           0
         NMat0=    1 NMatS0=      1 NMatT0=    0 NMatD0=    1 NMtDS0=    0 NMtDT0=    0
 Petite list used in FoFCou.
 Harris En= -571.545179218530    
 JPrj=0 DoOrth=F DoCkMO=F.
 Leave Link  401 at Thu Feb 27 01:55:15 2020, MaxMem=   268435456 cpu:        30.2
 (Enter /opt/gaussian/g09/l502.exe)
 Closed shell SCF:
 Using DIIS extrapolation, IDIIS=  1040.
 Integral symmetry usage will be decided dynamically.
 Keep J ints in memory in canonical form, NReq=260920741.
 IVT=      177982 IEndB=      177982 NGot=   268435456 MDV=    13363144
 LenX=    13363144 LenY=    13311627
 Requested convergence on RMS density matrix=1.00D-07 within 128 cycles.
 Requested convergence on MAX density matrix=1.00D-05.
 Requested convergence on             energy=1.00D-05.
 No special actions if energy rises.
 FoFCou: FMM=F IPFlag=           0 FMFlag=           0 FMFlg1=           0
         NFxFlg=           0 DoJE=F BraDBF=F KetDBF=F FulRan=T
         wScrn=  0.000000 ICntrl=     600 IOpCl=  0 I1Cent=           0 NGrid=           0
         NMat0=    1 NMatS0=  22578 NMatT0=    0 NMatD0=    1 NMtDS0=    0 NMtDT0=    0
 Symmetry not used in FoFCou.
 CoulSu:  requested number of processors reduced to:  14 ShMem   1 Linda.
 Integral accuracy reduced to 1.0D-05 until final iterations.

 Cycle   1  Pass 0  IDiag  1:
 CalDSu:  requested number of processors reduced to:  11 ShMem   1 Linda.
 E= -571.208056345628    
 DIIS: error= 2.96D-02 at cycle   1 NSaved=   1.
 NSaved= 1 IEnMin= 1 EnMin= -571.208056345628     IErMin= 1 ErrMin= 2.96D-02
 ErrMax= 2.96D-02  0.00D+00 EMaxC= 1.00D-01 BMatC= 1.48D-01 BMatP= 1.48D-01
 IDIUse=3 WtCom= 7.04D-01 WtEn= 2.96D-01
 Coeff-Com:  0.100D+01
 Coeff-En:   0.100D+01
 Coeff:      0.100D+01
 Gap=     0.132 Goal=   None    Shift=    0.000
 GapD=    0.132 DampG=1.000 DampE=0.500 DampFc=0.5000 IDamp=-1.
 Damping current iteration by 5.00D-01
 RMSDP=5.55D-03 MaxDP=1.30D-01              OVMax= 1.51D-01

 Cycle   2  Pass 0  IDiag  1:
 CalDSu:  requested number of processors reduced to:  11 ShMem   1 Linda.
 E= -571.282086827955     Delta-E=       -0.074030482326 Rises=F Damp=T
 DIIS: error= 7.26D-03 at cycle   2 NSaved=   2.
 NSaved= 2 IEnMin= 2 EnMin= -571.282086827955     IErMin= 2 ErrMin= 7.26D-03
 ErrMax= 7.26D-03  0.00D+00 EMaxC= 1.00D-01 BMatC= 9.01D-03 BMatP= 1.48D-01
 IDIUse=3 WtCom= 9.27D-01 WtEn= 7.26D-02
 Coeff-Com:  0.102D+00 0.898D+00
 Coeff-En:   0.167D+00 0.833D+00
 Coeff:      0.107D+00 0.893D+00
 Gap=     0.110 Goal=   None    Shift=    0.000
 RMSDP=1.47D-03 MaxDP=3.68D-02 DE=-7.40D-02 OVMax= 1.49D-01

 Cycle   3  Pass 0  IDiag  1:
 CalDSu:  requested number of processors reduced to:  11 ShMem   1 Linda.
 E= -571.371303891407     Delta-E=       -0.089217063452 Rises=F Damp=F
 DIIS: error= 1.07D-02 at cycle   3 NSaved=   3.
 NSaved= 3 IEnMin= 3 EnMin= -571.371303891407     IErMin= 2 ErrMin= 7.26D-03
 ErrMax= 1.07D-02  0.00D+00 EMaxC= 1.00D-01 BMatC= 1.26D-02 BMatP= 9.01D-03
 IDIUse=2 WtCom= 0.00D+00 WtEn= 1.00D+00
 Coeff-En:   0.000D+00 0.000D+00 0.100D+01
 Coeff:      0.000D+00 0.000D+00 0.100D+01
 Gap=     0.138 Goal=   None    Shift=    0.000
 RMSDP=2.10D-03 MaxDP=7.72D-02 DE=-8.92D-02 OVMax= 1.89D-01

 Cycle   4  Pass 0  IDiag  1:
 CalDSu:  requested number of processors reduced to:  11 ShMem   1 Linda.
 E= -571.289047705617     Delta-E=        0.082256185790 Rises=F Damp=F
 DIIS: error= 3.10D-02 at cycle   4 NSaved=   4.
 NSaved= 4 IEnMin= 3 EnMin= -571.371303891407     IErMin= 2 ErrMin= 7.26D-03
 ErrMax= 3.10D-02  0.00D+00 EMaxC= 1.00D-01 BMatC= 8.15D-02 BMatP= 9.01D-03
 IDIUse=2 WtCom= 0.00D+00 WtEn= 1.00D+00
 Coeff-En:   0.000D+00 0.000D+00 0.807D+00 0.193D+00
 Coeff:      0.000D+00 0.000D+00 0.807D+00 0.193D+00
 Gap=     0.130 Goal=   None    Shift=    0.000
 RMSDP=1.13D-03 MaxDP=3.92D-02 DE= 8.23D-02 OVMax= 1.02D-01

 Cycle   5  Pass 0  IDiag  1:
 CalDSu:  requested number of processors reduced to:  11 ShMem   1 Linda.
 E= -571.377984882019     Delta-E=       -0.088937176401 Rises=F Damp=F
 DIIS: error= 8.06D-03 at cycle   5 NSaved=   5.
 NSaved= 5 IEnMin= 5 EnMin= -571.377984882019     IErMin= 2 ErrMin= 7.26D-03
 ErrMax= 8.06D-03  0.00D+00 EMaxC= 1.00D-01 BMatC= 7.32D-03 BMatP= 9.01D-03
 IDIUse=3 WtCom= 9.19D-01 WtEn= 8.06D-02
 Coeff-Com:  0.127D-01 0.836D-01 0.474D+00 0.620D-01 0.368D+00
 Coeff-En:   0.000D+00 0.000D+00 0.393D+00 0.000D+00 0.607D+00
 Coeff:      0.117D-01 0.769D-01 0.467D+00 0.570D-01 0.387D+00
 Gap=     0.116 Goal=   None    Shift=    0.000
 RMSDP=4.20D-04 MaxDP=1.65D-02 DE=-8.89D-02 OVMax= 3.79D-02

 Cycle   6  Pass 0  IDiag  1:
 CalDSu:  requested number of processors reduced to:  11 ShMem   1 Linda.
 E= -571.386106220444     Delta-E=       -0.008121338425 Rises=F Damp=F
 DIIS: error= 5.11D-04 at cycle   6 NSaved=   6.
 NSaved= 6 IEnMin= 6 EnMin= -571.386106220444     IErMin= 6 ErrMin= 5.11D-04
 ErrMax= 5.11D-04  0.00D+00 EMaxC= 1.00D-01 BMatC= 7.02D-05 BMatP= 7.32D-03
 IDIUse=3 WtCom= 9.95D-01 WtEn= 5.11D-03
 Coeff-Com:  0.280D-02 0.749D-02 0.145D+00-0.200D-01 0.257D+00 0.608D+00
 Coeff-En:   0.000D+00 0.000D+00 0.000D+00 0.000D+00 0.000D+00 0.100D+01
 Coeff:      0.279D-02 0.745D-02 0.144D+00-0.199D-01 0.256D+00 0.610D+00
 Gap=     0.115 Goal=   None    Shift=    0.000
 RMSDP=5.07D-05 MaxDP=1.62D-03 DE=-8.12D-03 OVMax= 2.44D-03

 Cycle   7  Pass 0  IDiag  1:
 CalDSu:  requested number of processors reduced to:  11 ShMem   1 Linda.
 E= -571.386168364159     Delta-E=       -0.000062143716 Rises=F Damp=F
 DIIS: error= 1.69D-04 at cycle   7 NSaved=   7.
 NSaved= 7 IEnMin= 7 EnMin= -571.386168364159     IErMin= 7 ErrMin= 1.69D-04
 ErrMax= 1.69D-04  0.00D+00 EMaxC= 1.00D-01 BMatC= 5.28D-06 BMatP= 7.02D-05
 IDIUse=3 WtCom= 9.98D-01 WtEn= 1.69D-03
 Coeff-Com:  0.121D-02 0.948D-03 0.682D-01-0.159D-01 0.144D+00 0.385D+00
 Coeff-Com:  0.417D+00
 Coeff-En:   0.000D+00 0.000D+00 0.000D+00 0.000D+00 0.000D+00 0.000D+00
 Coeff-En:   0.100D+01
 Coeff:      0.121D-02 0.946D-03 0.681D-01-0.159D-01 0.143D+00 0.384D+00
 Coeff:      0.418D+00
 Gap=     0.115 Goal=   None    Shift=    0.000
 RMSDP=1.27D-05 MaxDP=2.96D-04 DE=-6.21D-05 OVMax= 7.43D-04

 Cycle   8  Pass 0  IDiag  1:
 CalDSu:  requested number of processors reduced to:  11 ShMem   1 Linda.
 E= -571.386173615988     Delta-E=       -0.000005251829 Rises=F Damp=F
 DIIS: error= 2.92D-05 at cycle   8 NSaved=   8.
 NSaved= 8 IEnMin= 8 EnMin= -571.386173615988     IErMin= 8 ErrMin= 2.92D-05
 ErrMax= 2.92D-05  0.00D+00 EMaxC= 1.00D-01 BMatC= 1.54D-07 BMatP= 5.28D-06
 IDIUse=1 WtCom= 1.00D+00 WtEn= 0.00D+00
 Coeff-Com:  0.372D-03-0.134D-03 0.181D-01-0.573D-02 0.426D-01 0.118D+00
 Coeff-Com:  0.198D+00 0.629D+00
 Coeff:      0.372D-03-0.134D-03 0.181D-01-0.573D-02 0.426D-01 0.118D+00
 Coeff:      0.198D+00 0.629D+00
 Gap=     0.115 Goal=   None    Shift=    0.000
 RMSDP=2.59D-06 MaxDP=7.27D-05 DE=-5.25D-06 OVMax= 1.52D-04

 Initial convergence to 1.0D-05 achieved.  Increase integral accuracy.
 Cycle   9  Pass 1  IDiag  1:
 CalDSu:  requested number of processors reduced to:  11 ShMem   1 Linda.
 E= -571.385982909145     Delta-E=        0.000190706843 Rises=F Damp=F
 DIIS: error= 4.56D-05 at cycle   1 NSaved=   1.
 NSaved= 1 IEnMin= 1 EnMin= -571.385982909145     IErMin= 1 ErrMin= 4.56D-05
 ErrMax= 4.56D-05  0.00D+00 EMaxC= 1.00D-01 BMatC= 2.47D-07 BMatP= 2.47D-07
 IDIUse=1 WtCom= 1.00D+00 WtEn= 0.00D+00
 Coeff-Com:  0.100D+01
 Coeff:      0.100D+01
 Gap=     0.115 Goal=   None    Shift=    0.000
 RMSDP=2.59D-06 MaxDP=7.27D-05 DE= 1.91D-04 OVMax= 2.38D-04

 Cycle  10  Pass 1  IDiag  1:
 CalDSu:  requested number of processors reduced to:  11 ShMem   1 Linda.
 E= -571.385982992317     Delta-E=       -0.000000083172 Rises=F Damp=F
 DIIS: error= 4.89D-05 at cycle   2 NSaved=   2.
 NSaved= 2 IEnMin= 2 EnMin= -571.385982992317     IErMin= 1 ErrMin= 4.56D-05
 ErrMax= 4.89D-05  0.00D+00 EMaxC= 1.00D-01 BMatC= 2.31D-07 BMatP= 2.47D-07
 IDIUse=1 WtCom= 1.00D+00 WtEn= 0.00D+00
 Coeff-Com:  0.488D+00 0.512D+00
 Coeff:      0.488D+00 0.512D+00
 Gap=     0.115 Goal=   None    Shift=    0.000
 RMSDP=4.90D-06 MaxDP=1.27D-04 DE=-8.32D-08 OVMax= 3.58D-04

 Cycle  11  Pass 1  IDiag  1:
 CalDSu:  requested number of processors reduced to:  11 ShMem   1 Linda.
 E= -571.385982999483     Delta-E=       -0.000000007166 Rises=F Damp=F
 DIIS: error= 4.97D-05 at cycle   3 NSaved=   3.
 NSaved= 3 IEnMin= 3 EnMin= -571.385982999483     IErMin= 1 ErrMin= 4.56D-05
 ErrMax= 4.97D-05  0.00D+00 EMaxC= 1.00D-01 BMatC= 2.16D-07 BMatP= 2.31D-07
 IDIUse=1 WtCom= 1.00D+00 WtEn= 0.00D+00
 Coeff-Com:  0.212D-01 0.485D+00 0.494D+00
 Coeff:      0.212D-01 0.485D+00 0.494D+00
 Gap=     0.115 Goal=   None    Shift=    0.000
 RMSDP=2.67D-06 MaxDP=5.76D-05 DE=-7.17D-09 OVMax= 2.02D-04

 Cycle  12  Pass 1  IDiag  1:
 CalDSu:  requested number of processors reduced to:  11 ShMem   1 Linda.
 E= -571.385983252998     Delta-E=       -0.000000253515 Rises=F Damp=F
 DIIS: error= 4.17D-06 at cycle   4 NSaved=   4.
 NSaved= 4 IEnMin= 4 EnMin= -571.385983252998     IErMin= 4 ErrMin= 4.17D-06
 ErrMax= 4.17D-06  0.00D+00 EMaxC= 1.00D-01 BMatC= 4.98D-09 BMatP= 2.16D-07
 IDIUse=1 WtCom= 1.00D+00 WtEn= 0.00D+00
 Coeff-Com: -0.186D-02 0.276D+00 0.303D+00 0.422D+00
 Coeff:     -0.186D-02 0.276D+00 0.303D+00 0.422D+00
 Gap=     0.115 Goal=   None    Shift=    0.000
 RMSDP=4.23D-07 MaxDP=1.39D-05 DE=-2.54D-07 OVMax= 2.11D-05

 Cycle  13  Pass 1  IDiag  1:
 CalDSu:  requested number of processors reduced to:  11 ShMem   1 Linda.
 E= -571.385983258187     Delta-E=       -0.000000005189 Rises=F Damp=F
 DIIS: error= 9.40D-07 at cycle   5 NSaved=   5.
 NSaved= 5 IEnMin= 5 EnMin= -571.385983258187     IErMin= 5 ErrMin= 9.40D-07
 ErrMax= 9.40D-07  0.00D+00 EMaxC= 1.00D-01 BMatC= 1.98D-10 BMatP= 4.98D-09
 IDIUse=1 WtCom= 1.00D+00 WtEn= 0.00D+00
 Coeff-Com: -0.237D-02 0.944D-01 0.110D+00 0.220D+00 0.578D+00
 Coeff:     -0.237D-02 0.944D-01 0.110D+00 0.220D+00 0.578D+00
 Gap=     0.115 Goal=   None    Shift=    0.000
 RMSDP=8.82D-08 MaxDP=2.29D-06 DE=-5.19D-09 OVMax= 3.54D-06

 SCF Done:  E(RPW91-PW91) =  -571.385983258     A.U. after   13 cycles
            NFock= 13  Conv=0.88D-07     -V/T= 2.0064
 KE= 5.677301494031D+02 PE=-2.899206221811D+03 EE= 9.742002372987D+02
 Leave Link  502 at Thu Feb 27 01:55:43 2020, MaxMem=   268435456 cpu:       309.4
 (Enter /opt/gaussian/g09/l801.exe)
 ExpMin= 1.61D-01 ExpMax= 4.17D+03 ExpMxC= 6.27D+02 IAcc=3 IRadAn=         5 AccDes= 0.00D+00
 HarFok:  IExCor=  205 AccDes= 0.00D+00 IRadAn=         5 IDoV=-2 UseB2=F ITyADJ=14
 ICtDFT= 12500011 ScaDFX=  1.000000  1.000000  1.000000  1.000000
 Largest valence mixing into a core orbital is  4.50D-05
 Largest core mixing into a valence orbital is  2.27D-05
 Range of M.O.s used for correlation:    15   212
 NBasis=   212 NAE=    47 NBE=    47 NFC=    14 NFV=     0
 NROrb=    198 NOA=    33 NOB=    33 NVA=   165 NVB=   165
 Leave Link  801 at Thu Feb 27 01:55:45 2020, MaxMem=   268435456 cpu:        17.8
 (Enter /opt/gaussian/g09/l914.exe)
 RHF ground state
 MDV=   268435456 DFT=T DoStab=F Mixed=F DoRPA=T DoScal=T NonHer=F
 Would need an additional           357700000 words for in-memory AO integral storage.
 Making orbital integer symmetry assigments:
 Orbital symmetries:
       Occupied  (A) (A) (A) (A) (A) (A) (A) (A) (A) (A) (A) (A)
                 (A) (A) (A) (A) (A) (A) (A) (A) (A) (A) (A) (A)
                 (A) (A) (A) (A) (A) (A) (A) (A) (A) (A) (A) (A)
                 (A) (A) (A) (A) (A) (A) (A) (A) (A) (A) (A)
       Virtual   (A) (A) (A) (A) (A) (A) (A) (A) (A) (A) (A) (A)
                 (A) (A) (A) (A) (A) (A) (A) (A) (A) (A) (A) (A)
                 (A) (A) (A) (A) (A) (A) (A) (A) (A) (A) (A) (A)
                 (A) (A) (A) (A) (A) (A) (A) (A) (A) (A) (A) (A)
                 (A) (A) (A) (A) (A) (A) (A) (A) (A) (A) (A) (A)
                 (A) (A) (A) (A) (A) (A) (A) (A) (A) (A) (A) (A)
                 (A) (A) (A) (A) (A) (A) (A) (A) (A) (A) (A) (A)
                 (A) (A) (A) (A) (A) (A) (A) (A) (A) (A) (A) (A)
                 (A) (A) (A) (A) (A) (A) (A) (A) (A) (A) (A) (A)
                 (A) (A) (A) (A) (A) (A) (A) (A) (A) (A) (A) (A)
                 (A) (A) (A) (A) (A) (A) (A) (A) (A) (A) (A) (A)
                 (A) (A) (A) (A) (A) (A) (A) (A) (A) (A) (A) (A)
                 (A) (A) (A) (A) (A) (A) (A) (A) (A) (A) (A) (A)
                 (A) (A) (A) (A) (A) (A) (A) (A) (A)
    80 initial guesses have been made.
 Convergence on wavefunction:    0.001000000000000
 Davidson Disk Diagonalization:  ConvIn= 1.00D-03 SkipCon=T Conv= 1.00D-03.
 Max sub-space:   320 roots to seek:    80 dimension of matrix:        10890
 Iteration     1 Dimension    80 NMult     0 NNew     80
 CISAX will form    80 AO SS matrices at one time.
 NMat=    80 NSing=    80 JSym2X= 0.
 FoFJK:  IHMeth= 1 ICntrl=     500 DoSepK=F KAlg= 0 I1Cent=   0 FoldK=F
 IRaf=         0 NMat=  80 IRICut=       1 DoRegI=T DoRafI=F ISym2E= 0.
 FoFCou: FMM=F IPFlag=           0 FMFlag=      100000 FMFlg1=           0
         NFxFlg=           0 DoJE=F BraDBF=F KetDBF=F FulRan=T
         wScrn=  0.000000 ICntrl=     500 IOpCl=  0 I1Cent=           0 NGrid=           0
         NMat0=   80 NMatS0=     80 NMatT0=    0 NMatD0=   80 NMtDS0=    0 NMtDT0=    0
 Symmetry not used in FoFCou.
 New state      3 was old state      4
 New state      4 was old state      6
 New state      6 was old state      3
 New state      7 was old state      9
 New state      8 was old state      7
 New state      9 was old state     11
 New state     10 was old state      8
 New state     11 was old state     13
 New state     13 was old state     16
 New state     14 was old state     15
 New state     15 was old state     19
 New state     16 was old state     17
 New state     17 was old state     14
 New state     18 was old state     21
 New state     19 was old state     22
 New state     20 was old state     23
 Excitation Energies [eV] at current iteration:
 Root      1 :     3.177864409987710
 Root      2 :     3.325548697985439
 Root      3 :     3.611072810068869
 Root      4 :     3.796668565724159
 Root      5 :     3.821010048613637
 Root      6 :     4.179511736587837
 Root      7 :     4.403847606072456
 Root      8 :     4.487823210995280
 Root      9 :     4.799205074539345
 Root     10 :     5.024838159796984
 Root     11 :     5.087715932734800
 Root     12 :     5.089942096289274
 Root     13 :     5.307391086840905
 Root     14 :     5.396869468723030
 Root     15 :     5.466678625803292
 Root     16 :     5.570469198313007
 Root     17 :     6.067943232272350
 Root     18 :     6.165210079592087
 Root     19 :     6.228047495516281
 Root     20 :     6.237412125467101
 Root     21 :     6.264778213458533
 Root     22 :     6.367505179477574
 Root     23 :     6.553636378207623
 Root     24 :     6.566738102935148
 Root     25 :     6.786986852683435
 Root     26 :     6.794932699092096
 Root     27 :     6.796467270761991
 Root     28 :     6.899071852068557
 Root     29 :     6.990204778976137
 Root     30 :     7.023886879386254
 Root     31 :     7.158294033106944
 Root     32 :     7.362365937920186
 Root     33 :     7.373059201009637
 Root     34 :     7.438977304318917
 Root     35 :     7.460149882687692
 Root     36 :     7.480922691800196
 Root     37 :     7.488227530593012
 Root     38 :     7.590474326206916
 Root     39 :     7.630813732909870
 Root     40 :     7.661195651453359
 Root     41 :     7.704951265341794
 Root     42 :     7.706107954970574
 Root     43 :     7.712357850556757
 Root     44 :     7.727086707980327
 Root     45 :     7.781397461488317
 Root     46 :     7.802233459043574
 Root     47 :     7.810610674764463
 Root     48 :     7.839187273578281
 Root     49 :     7.906463731705540
 Root     50 :     7.909937024633129
 Root     51 :     7.975237537608568
 Root     52 :     8.027364668071447
 Root     53 :     8.090300610024240
 Root     54 :     8.107736644848860
 Root     55 :     8.139440562147058
 Root     56 :     8.208108760433094
 Root     57 :     8.259946427883657
 Root     58 :     8.343797298617490
 Root     59 :     8.363669949003203
 Root     60 :     8.384214478666966
 Root     61 :     8.428873270777567
 Root     62 :     8.500134104452211
 Root     63 :     8.557477158906321
 Root     64 :     8.581746213268719
 Root     65 :     8.587484701244932
 Root     66 :     8.627887124824346
 Root     67 :     8.650166228254529
 Root     68 :     8.653921405181555
 Root     69 :     8.657481627059356
 Root     70 :     8.683325245859907
 Root     71 :     8.833192721054054
 Root     72 :     8.855896342127968
 Root     73 :     8.946672369952399
 Root     74 :     9.018118917900534
 Root     75 :     9.319296893174155
 Root     76 :     9.734804845234631
 Root     77 :     9.767183248409514
 Root     78 :     9.882978032405243
 Root     79 :    10.813068213541930
 Root     80 :    10.875608351154360
 Iteration     2 Dimension   160 NMult    80 NNew     80
 CISAX will form    80 AO SS matrices at one time.
 NMat=    80 NSing=    80 JSym2X= 0.
 Root      1 not converged, maximum delta is    0.014706394719645
 Root      2 not converged, maximum delta is    0.039596949781163
 Root      3 not converged, maximum delta is    0.037146374017686
 Root      4 not converged, maximum delta is    0.017707848647904
 Root      5 not converged, maximum delta is    0.041172945140012
 Root      6 not converged, maximum delta is    0.054635471688595
 New state      7 was old state      8
 Root      7 not converged, maximum delta is    0.080653565135363
 New state      8 was old state      7
 Root      8 not converged, maximum delta is    0.012641436644475
 Root      9 not converged, maximum delta is    0.040494081419863
 Root     10 not converged, maximum delta is    0.123145993770704
 Root     11 not converged, maximum delta is    0.090269186416387
 Root     12 not converged, maximum delta is    0.059892934759384
 New state     13 was old state     14
 Root     13 not converged, maximum delta is    0.313707731466707
 New state     14 was old state     13
 Root     14 not converged, maximum delta is    0.327574862450702
 Root     15 not converged, maximum delta is    0.012369306939687
 Root     16 not converged, maximum delta is    0.056916731533784
 Root     17 not converged, maximum delta is    0.112062752955491
 New state     18 was old state     20
 Root     18 not converged, maximum delta is    0.294885068304632
 New state     19 was old state     18
 Root     19 not converged, maximum delta is    0.021506370603452
 New state     20 was old state     19
 Root     20 not converged, maximum delta is    0.099721625708468
 Excitation Energies [eV] at current iteration:
 Root      1 :     3.170738949412511   Change is   -0.007125460575199
 Root      2 :     3.306971508851500   Change is   -0.018577189133940
 Root      3 :     3.593472955276641   Change is   -0.017599854792227
 Root      4 :     3.750974735030773   Change is   -0.045693830693386
 Root      5 :     3.768524303768371   Change is   -0.052485744845266
 Root      6 :     3.992010500448763   Change is   -0.187501236139074
 Root      7 :     4.346808191815201   Change is   -0.141015019180078
 Root      8 :     4.383772954329491   Change is   -0.020074651742965
 Root      9 :     4.785145615636136   Change is   -0.014059458903209
 Root     10 :     4.796746492524044   Change is   -0.228091667272941
 Root     11 :     4.988410488109927   Change is   -0.099305444624873
 Root     12 :     5.058999327658833   Change is   -0.030942768630441
 Root     13 :     5.244559908407961   Change is   -0.152309560315069
 Root     14 :     5.271613276660776   Change is   -0.035777810180129
 Root     15 :     5.445156082485950   Change is   -0.021522543317341
 Root     16 :     5.499017496588538   Change is   -0.071451701724469
 Root     17 :     5.657588004779243   Change is   -0.410355227493107
 Root     18 :     5.950793665251641   Change is   -0.286618460215459
 Root     19 :     6.135551794699478   Change is   -0.029658284892609
 Root     20 :     6.186266327643680   Change is   -0.041781167872602
 Root     21 :     6.255394539486218   Change is   -0.009383673972316
 Root     22 :     6.350402702948329   Change is   -0.017102476529245
 Root     23 :     6.365416338913802   Change is   -0.624788440062336
 Root     24 :     6.419191996309667   Change is   -0.479879855758890
 Root     25 :     6.470720504791813   Change is   -0.096017598143335
 Root     26 :     6.528576508974004   Change is   -0.025059869233619
 Root     27 :     6.655428070258132   Change is   -0.131558782425302
 Root     28 :     6.687891051603961   Change is   -0.470402981502983
 Root     29 :     6.775364425380582   Change is   -0.019568273711514
 Root     30 :     6.790537502897855   Change is   -0.005929767864135
 Root     31 :     7.015025366048915   Change is   -0.008861513337339
 Root     32 :     7.296279724907187   Change is   -0.076779476102450
 Root     33 :     7.329006372781844   Change is   -0.481604301982620
 Root     34 :     7.356521028124634   Change is   -0.005844909795551
 Root     35 :     7.385806379865295   Change is   -0.204667946341622
 Root     36 :     7.414950520301923   Change is   -0.065972171498272
 Root     37 :     7.429962145920388   Change is   -0.009015158398529
 Root     38 :     7.432219430372260   Change is   -0.228976221081099
 Root     39 :     7.450586773053419   Change is   -0.009563109634273
 Root     40 :     7.484107728120879   Change is   -0.004119802472133
 Root     41 :     7.545519840962380   Change is   -0.838694637704585
 Root     42 :     7.600389398004185   Change is   -0.105718556966389
 Root     43 :     7.623072428940302   Change is   -0.007741303969567
 Root     44 :     7.693097143196542   Change is   -0.011854122145251
 Root     45 :     7.708710012360251   Change is   -0.003647838196507
 Root     46 :     7.720027344108668   Change is   -0.007059363871660
 Root     47 :     7.758321428408875   Change is   -0.023076033079442
 Root     48 :     7.771143043168359   Change is   -0.031090415875215
 Root     49 :     7.820175358086796   Change is   -0.019011915491485
 Root     50 :     7.854104277111087   Change is   -0.055832747522041
 Root     51 :     7.875478891045785   Change is   -0.030984840659755
 Root     52 :     7.944252779666503   Change is   -0.030984757942066
 Root     53 :     7.949005550316381   Change is   -0.394791748301110
 Root     54 :     7.966632553532257   Change is   -0.241476206900837
 Root     55 :     8.012390883500405   Change is   -0.014973784571044
 Root     56 :     8.073103150713273   Change is   -0.017197459310967
 Root     57 :     8.091877147044871   Change is   -0.015859497803989
 Root     58 :     8.102656315486396   Change is   -0.036784246660663
 Root     59 :     8.225078855932438   Change is   -0.425087372322090
 Root     60 :     8.231327629783944   Change is   -0.028618798099711
 Root     61 :     8.246121188941439   Change is   -0.182752081836128
 Root     62 :     8.287524602684183   Change is   -0.076145346319020
 Root     63 :     8.325363927459684   Change is   -0.332117699599671
 Root     64 :     8.352415476045678   Change is   -0.147718628406534
 Root     65 :     8.523069351022398   Change is   -1.211735494212233
 Root     66 :     8.548642615647891   Change is   -0.008834543258430
 Root     67 :     8.565115508396376   Change is   -0.016630704872343
 Root     68 :     8.575491407242209   Change is   -0.011993294002722
 Root     69 :     8.608866777796267   Change is   -0.710430115377888
 Root     70 :     8.614070825048300   Change is   -0.013816299776046
 Root     71 :     8.624826481180461   Change is   -0.058498764679445
 Root     72 :     8.636043530533286   Change is   -0.017877874648268
 Root     73 :     8.702983543128655   Change is   -1.064199705280858
 Root     74 :     8.809371539892796   Change is   -0.023821181161258
 Root     75 :     8.853055546458119   Change is   -0.002840795669849
 Root     76 :     8.885337431605246   Change is   -0.997640600799998
 Root     77 :     8.921808437666000   Change is   -0.024863932286398
 Root     78 :     8.955055101604779   Change is   -0.063063816295755
 Root     79 :     9.177776363685316
 Root     80 :     9.257283961050888   Change is   -1.555784252491043
 Iteration     3 Dimension   180 NMult   160 NNew     20
 CISAX will form    20 AO SS matrices at one time.
 NMat=    20 NSing=    20 JSym2X= 0.
 Root      1 has converged.
 Root      2 not converged, maximum delta is    0.001818886823171
 Root      3 not converged, maximum delta is    0.001744485002452
 Root      4 not converged, maximum delta is    0.004281841233970
 Root      5 not converged, maximum delta is    0.004867958149740
 Root      6 not converged, maximum delta is    0.002287581592206
 Root      7 not converged, maximum delta is    0.003695386917250
 Root      8 has converged.
 New state      9 was old state     10
 Root      9 not converged, maximum delta is    0.136700616447567
 New state     10 was old state      9
 Root     10 not converged, maximum delta is    0.105637708941122
 Root     11 not converged, maximum delta is    0.003680071194926
 Root     12 not converged, maximum delta is    0.003188293239443
 Root     13 not converged, maximum delta is    0.025144357392181
 Root     14 not converged, maximum delta is    0.027993984847222
 Root     15 not converged, maximum delta is    0.001008712713373
 Root     16 not converged, maximum delta is    0.006653978374965
 Root     17 not converged, maximum delta is    0.010532446249867
 Root     18 not converged, maximum delta is    0.021688358949191
 Root     19 not converged, maximum delta is    0.001710077782553
 Root     20 not converged, maximum delta is    0.012556659770544
 Excitation Energies [eV] at current iteration:
 Root      1 :     3.170091891794610   Change is   -0.000647057617901
 Root      2 :     3.305972860912769   Change is   -0.000998647938731
 Root      3 :     3.592554124390965   Change is   -0.000918830885676
 Root      4 :     3.748644122850285   Change is   -0.002330612180488
 Root      5 :     3.764799647196466   Change is   -0.003724656571905
 Root      6 :     3.982906989684749   Change is   -0.009103510764014
 Root      7 :     4.338150742416559   Change is   -0.008657449398642
 Root      8 :     4.383136125241836   Change is   -0.000636829087656
 Root      9 :     4.777417624578694   Change is   -0.019328867945349
 Root     10 :     4.784006639401412   Change is   -0.001138976234725
 Root     11 :     4.983834071408471   Change is   -0.004576416701456
 Root     12 :     5.056566819839132   Change is   -0.002432507819701
 Root     13 :     5.236554537963718   Change is   -0.008005370444243
 Root     14 :     5.267155611229536   Change is   -0.004457665431240
 Root     15 :     5.443804194620451   Change is   -0.001351887865500
 Root     16 :     5.493550766826049   Change is   -0.005466729762489
 Root     17 :     5.636296678857543   Change is   -0.021291325921700
 Root     18 :     5.923110832429852   Change is   -0.027682832821789
 Root     19 :     6.133781092815820   Change is   -0.001770701883658
 Root     20 :     6.181057303705074   Change is   -0.005209023938605
 Iteration     4 Dimension   198 NMult   180 NNew     18
 CISAX will form    18 AO SS matrices at one time.
 NMat=    18 NSing=    18 JSym2X= 0.
 Root      1 has converged.
 Root      2 has converged.
 Root      3 has converged.
 Root      4 has converged.
 Root      5 has converged.
 Root      6 not converged, maximum delta is    0.001501268664664
 Root      7 not converged, maximum delta is    0.001386927471346
 Root      8 has converged.
 Root      9 not converged, maximum delta is    0.024437837434026
 Root     10 not converged, maximum delta is    0.018882097711624
 Root     11 not converged, maximum delta is    0.001432210119753
 Root     12 has converged.
 Root     13 not converged, maximum delta is    0.003131026388211
 Root     14 not converged, maximum delta is    0.003585505150036
 Root     15 has converged.
 Root     16 not converged, maximum delta is    0.001240927510697
 Root     17 not converged, maximum delta is    0.002733044902931
 Root     18 not converged, maximum delta is    0.002787673028805
 Root     19 has converged.
 Root     20 not converged, maximum delta is    0.001896956309467
 Excitation Energies [eV] at current iteration:
 Root      1 :     3.170006467680903   Change is   -0.000085424113707
 Root      2 :     3.305783394167523   Change is   -0.000189466745247
 Root      3 :     3.592396497130932   Change is   -0.000157627260033
 Root      4 :     3.748193914101514   Change is   -0.000450208748771
 Root      5 :     3.764207761776771   Change is   -0.000591885419695
 Root      6 :     3.981275136791090   Change is   -0.001631852893659
 Root      7 :     4.336722833032469   Change is   -0.001427909384090
 Root      8 :     4.383060637644657   Change is   -0.000075487597178
 Root      9 :     4.774744052466118   Change is   -0.002673572112577
 Root     10 :     4.783797924021741   Change is   -0.000208715379670
 Root     11 :     4.983052513241128   Change is   -0.000781558167344
 Root     12 :     5.056238612345957   Change is   -0.000328207493175
 Root     13 :     5.235169234399264   Change is   -0.001385303564453
 Root     14 :     5.266394320812449   Change is   -0.000761290417088
 Root     15 :     5.443619445839472   Change is   -0.000184748780979
 Root     16 :     5.492675846148305   Change is   -0.000874920677745
 Root     17 :     5.632994869226095   Change is   -0.003301809631448
 Root     18 :     5.919294975392012   Change is   -0.003815857037841
 Root     19 :     6.133560316944387   Change is   -0.000220775871432
 Root     20 :     6.180215942462715   Change is   -0.000841361242360
 Iteration     5 Dimension   209 NMult   198 NNew     11
 CISAX will form    11 AO SS matrices at one time.
 NMat=    11 NSing=    11 JSym2X= 0.
 Root      1 has converged.
 Root      2 has converged.
 Root      3 has converged.
 Root      4 has converged.
 Root      5 has converged.
 Root      6 has converged.
 Root      7 has converged.
 Root      8 has converged.
 Root      9 not converged, maximum delta is    0.003002744627075
 Root     10 not converged, maximum delta is    0.002323771439004
 Root     11 has converged.
 Root     12 has converged.
 Root     13 has converged.
 Root     14 has converged.
 Root     15 has converged.
 Root     16 has converged.
 Root     17 not converged, maximum delta is    0.001399202968630
 Root     18 has converged.
 Root     19 has converged.
 Root     20 has converged.
 Excitation Energies [eV] at current iteration:
 Root      1 :     3.169992302617490   Change is   -0.000014165063413
 Root      2 :     3.305783355901597   Change is   -0.000000038265925
 Root      3 :     3.592396456171923   Change is   -0.000000040959009
 Root      4 :     3.748184558967381   Change is   -0.000009355134133
 Root      5 :     3.764153840980219   Change is   -0.000053920796552
 Root      6 :     3.980960569897657   Change is   -0.000314566893433
 Root      7 :     4.336445280755309   Change is   -0.000277552277159
 Root      8 :     4.383060615074480   Change is   -0.000000022570178
 Root      9 :     4.774274046016705   Change is   -0.000470006449412
 Root     10 :     4.783765469041775   Change is   -0.000032454979966
 Root     11 :     4.982903560391944   Change is   -0.000148952849184
 Root     12 :     5.056209946760082   Change is   -0.000028665585875
 Root     13 :     5.234844987580662   Change is   -0.000324246818603
 Root     14 :     5.266237939720786   Change is   -0.000156381091662
 Root     15 :     5.443619368943573   Change is   -0.000000076895899
[...]
        16         0.0000     -0.0043      0.0000      0.0043      0.0029
        17        -0.7162      0.0000      0.0000      0.7162      0.4775
        18         0.0000     -0.2120      0.0000      0.2120      0.1414
        19         0.0000      0.0000     -0.0030      0.0030      0.0020
        20        -0.0122      0.0000      0.0000      0.0122      0.0081

 Excitation energies and oscillator strengths:
 
 Excited State   1:      Singlet-A      3.1700 eV  391.12 nm  f=0.0004  <S**2>=0.000
      47 -> 48         0.70155
 This state for optimization and/or second-order correction.
 Total Energy, E(TD-HF/TD-KS) =  -571.269488393    
 Copying the excited state density for this state as the 1-particle RhoCI density.
 
 Excited State   2:      Singlet-A      3.3058 eV  375.05 nm  f=0.0000  <S**2>=0.000
      45 -> 48         0.16612
      47 -> 49         0.68564
 
 Excited State   3:      Singlet-A      3.5924 eV  345.13 nm  f=0.0000  <S**2>=0.000
      45 -> 48         0.68498
      47 -> 49        -0.16208
 
 Excited State   4:      Singlet-A      3.7482 eV  330.78 nm  f=0.0019  <S**2>=0.000
      45 -> 49         0.69350
 
 Excited State   5:      Singlet-A      3.7642 eV  329.38 nm  f=0.0008  <S**2>=0.000
      44 -> 48        -0.34702
      46 -> 49         0.60209
 
 Excited State   6:      Singlet-A      3.9810 eV  311.44 nm  f=0.0369  <S**2>=0.000
      44 -> 49         0.35519
      46 -> 48         0.59330
 
 Excited State   7:      Singlet-A      4.3364 eV  285.91 nm  f=0.0449  <S**2>=0.000
      44 -> 48         0.54464
      46 -> 49         0.31015
      46 -> 50         0.28066
 
 Excited State   8:      Singlet-A      4.3831 eV  282.87 nm  f=0.0000  <S**2>=0.000
      47 -> 50         0.70256
 
 Excited State   9:      Singlet-A      4.7742 eV  259.70 nm  f=0.5026  <S**2>=0.000
      42 -> 48         0.11364
      43 -> 50         0.10818
      44 -> 49         0.53250
      44 -> 50         0.26797
      46 -> 48        -0.31267
      46 -> 51        -0.12611
 
 Excited State  10:      Singlet-A      4.7838 eV  259.18 nm  f=0.0047  <S**2>=0.000
      45 -> 50         0.68217
      47 -> 51         0.16614
 
 Excited State  11:      Singlet-A      4.9829 eV  248.82 nm  f=0.0408  <S**2>=0.000
      42 -> 49        -0.12389
      43 -> 48        -0.44821
      44 -> 48        -0.17549
      46 -> 49        -0.12411
      46 -> 50         0.46595
 
 Excited State  12:      Singlet-A      5.0562 eV  245.21 nm  f=0.0010  <S**2>=0.000
      45 -> 50        -0.16054
      47 -> 51         0.68395
 
 Excited State  13:      Singlet-A      5.2348 eV  236.84 nm  f=0.0131  <S**2>=0.000
      42 -> 48         0.28633
      43 -> 49         0.55956
      44 -> 49         0.10828
      44 -> 50        -0.28438
 
 Excited State  14:      Singlet-A      5.2662 eV  235.43 nm  f=0.0569  <S**2>=0.000
      42 -> 48         0.52173
      44 -> 49        -0.14740
      44 -> 50         0.27792
      46 -> 51         0.34545
 
 Excited State  15:      Singlet-A      5.4436 eV  227.76 nm  f=0.0001  <S**2>=0.000
      45 -> 51         0.70372
 
 Excited State  16:      Singlet-A      5.4925 eV  225.73 nm  f=0.0024  <S**2>=0.000
      42 -> 49         0.54761
      43 -> 48        -0.22006
      44 -> 51         0.35776
 
 Excited State  17:      Singlet-A      5.6322 eV  220.13 nm  f=0.4955  <S**2>=0.000
      41 -> 48         0.11481
      43 -> 49        -0.15263
      44 -> 49         0.20663
      44 -> 50        -0.39671
      46 -> 48        -0.17270
      46 -> 51         0.46537
 
 Excited State  18:      Singlet-A      5.9186 eV  209.48 nm  f=0.1471  <S**2>=0.000
      41 -> 49         0.21522
      43 -> 48         0.41236
      44 -> 48        -0.14905
      44 -> 51         0.31401
      46 -> 50         0.37232
 
 Excited State  19:      Singlet-A      6.1335 eV  202.14 nm  f=0.0020  <S**2>=0.000
      47 -> 52         0.70104
 
 Excited State  20:      Singlet-A      6.1800 eV  200.62 nm  f=0.0084  <S**2>=0.000
      41 -> 48         0.49643
      42 -> 48        -0.15837
      43 -> 49         0.15805
      44 -> 50         0.15728
      46 -> 51         0.12355
      46 -> 52         0.38541
 SavETr:  write IOETrn=   770 NScale= 10 NData=  16 NLR=1 NState=   20 LETran=     370.
 Leave Link  914 at Thu Feb 27 01:57:12 2020, MaxMem=   268435456 cpu:      1398.8
 (Enter /opt/gaussian/g09/l601.exe)
 Copying SCF densities to generalized density rwf, IOpCl= 0 IROHF=0.

 **********************************************************************

            Population analysis using the SCF density.

 **********************************************************************

 Orbital symmetries:
       Occupied  (A) (A) (A) (A) (A) (A) (A) (A) (A) (A) (A) (A)
                 (A) (A) (A) (A) (A) (A) (A) (A) (A) (A) (A) (A)
                 (A) (A) (A) (A) (A) (A) (A) (A) (A) (A) (A) (A)
                 (A) (A) (A) (A) (A) (A) (A) (A) (A) (A) (A)
       Virtual   (A) (A) (A) (A) (A) (A) (A) (A) (A) (A) (A) (A)
                 (A) (A) (A) (A) (A) (A) (A) (A) (A) (A) (A) (A)
                 (A) (A) (A) (A) (A) (A) (A) (A) (A) (A) (A) (A)
                 (A) (A) (A) (A) (A) (A) (A) (A) (A) (A) (A) (A)
                 (A) (A) (A) (A) (A) (A) (A) (A) (A) (A) (A) (A)
                 (A) (A) (A) (A) (A) (A) (A) (A) (A) (A) (A) (A)
                 (A) (A) (A) (A) (A) (A) (A) (A) (A) (A) (A) (A)
                 (A) (A) (A) (A) (A) (A) (A) (A) (A) (A) (A) (A)
                 (A) (A) (A) (A) (A) (A) (A) (A) (A) (A) (A) (A)
                 (A) (A) (A) (A) (A) (A) (A) (A) (A) (A) (A) (A)
                 (A) (A) (A) (A) (A) (A) (A) (A) (A) (A) (A) (A)
                 (A) (A) (A) (A) (A) (A) (A) (A) (A) (A) (A) (A)
                 (A) (A) (A) (A) (A) (A) (A) (A) (A) (A) (A) (A)
                 (A) (A) (A) (A) (A) (A) (A) (A) (A)
 The electronic state is 1-A.
 Alpha  occ. eigenvalues --  -14.00291 -14.00280  -9.94390  -9.94380  -9.93754
 Alpha  occ. eigenvalues --   -9.93744  -9.92602  -9.92592  -9.92525  -9.92515
 Alpha  occ. eigenvalues --   -9.91910  -9.91873  -9.91689  -9.91684  -0.86860
 Alpha  occ. eigenvalues --   -0.84728  -0.77241  -0.73367  -0.72616  -0.67726
 Alpha  occ. eigenvalues --   -0.67275  -0.59366  -0.58240  -0.56796  -0.54049
 Alpha  occ. eigenvalues --   -0.49805  -0.47923  -0.46074  -0.43521  -0.43248
 Alpha  occ. eigenvalues --   -0.41316  -0.39210  -0.38103  -0.37174  -0.36188
 Alpha  occ. eigenvalues --   -0.35752  -0.35049  -0.34498  -0.32534  -0.30757
 Alpha  occ. eigenvalues --   -0.30237  -0.26944  -0.26282  -0.22064  -0.20911
 Alpha  occ. eigenvalues --   -0.20726  -0.19426
 Alpha virt. eigenvalues --   -0.07922  -0.07667  -0.03545  -0.01162   0.02841
 Alpha virt. eigenvalues --    0.06228   0.07585   0.09172   0.09380   0.11936
 Alpha virt. eigenvalues --    0.11995   0.14220   0.14763   0.15673   0.16384
 Alpha virt. eigenvalues --    0.20135   0.20256   0.21133   0.24346   0.25146
 Alpha virt. eigenvalues --    0.26884   0.28540   0.29350   0.29382   0.33904
 Alpha virt. eigenvalues --    0.37702   0.39756   0.42099   0.42778   0.45839
 Alpha virt. eigenvalues --    0.46414   0.47833   0.48483   0.50419   0.50819
 Alpha virt. eigenvalues --    0.50913   0.53490   0.53627   0.53650   0.54638
 Alpha virt. eigenvalues --    0.55331   0.55580   0.55708   0.56631   0.57189
 Alpha virt. eigenvalues --    0.58715   0.59334   0.59854   0.60948   0.61179
 Alpha virt. eigenvalues --    0.62005   0.62674   0.65367   0.66019   0.69015
 Alpha virt. eigenvalues --    0.75200   0.76280   0.76710   0.77122   0.77783
 Alpha virt. eigenvalues --    0.78396   0.79058   0.79775   0.82441   0.82735
 Alpha virt. eigenvalues --    0.83539   0.86163   0.86585   0.89095   0.89565
 Alpha virt. eigenvalues --    0.90212   0.92169   0.93756   0.94968   0.98293
 Alpha virt. eigenvalues --    1.00039   1.02195   1.05720   1.06670   1.08536
 Alpha virt. eigenvalues --    1.13558   1.15326   1.15549   1.16512   1.17655
 Alpha virt. eigenvalues --    1.19572   1.20516   1.25271   1.29582   1.30359
 Alpha virt. eigenvalues --    1.32810   1.33777   1.35728   1.38046   1.38947
 Alpha virt. eigenvalues --    1.39776   1.41959   1.42860   1.43983   1.44670
 Alpha virt. eigenvalues --    1.45500   1.47266   1.52129   1.57740   1.62646
 Alpha virt. eigenvalues --    1.62907   1.67739   1.69323   1.72925   1.73338
 Alpha virt. eigenvalues --    1.76748   1.77391   1.78656   1.81955   1.84388
 Alpha virt. eigenvalues --    1.84421   1.86650   1.88076   1.90675   1.91344
 Alpha virt. eigenvalues --    1.92824   1.95753   1.96023   2.03660   2.04973
 Alpha virt. eigenvalues --    2.08213   2.11818   2.11913   2.13666   2.13822
 Alpha virt. eigenvalues --    2.15057   2.18552   2.19990   2.20717   2.22887
 Alpha virt. eigenvalues --    2.23636   2.24905   2.27606   2.28883   2.31768
 Alpha virt. eigenvalues --    2.35401   2.35603   2.42033   2.50235   2.53393
 Alpha virt. eigenvalues --    2.54742   2.55598   2.56485   2.57556   2.60662
 Alpha virt. eigenvalues --    2.64337   2.64865   2.66483   2.71240   2.72242
 Alpha virt. eigenvalues --    2.74394   2.78370   2.80048   2.86262   2.93023
 Alpha virt. eigenvalues --    2.95973   3.03219   3.25244   3.34157   3.41409
          Condensed to atoms (all electrons):
               1          2          3          4          5          6
     1  C    5.022730   0.501152   0.007862  -0.045292   0.449462   0.009214
     2  C    0.501152   5.084893   0.459817  -0.042536  -0.027389  -0.087795
     3  C    0.007862   0.459817   4.858530   0.405906  -0.045348   0.383777
     4  C   -0.045292  -0.042536   0.405906   5.050942  -0.054505  -0.002187
     5  C    0.449462  -0.027389  -0.045348  -0.054505   4.835054   0.000475
     6  C    0.009214  -0.087795   0.383777  -0.002187   0.000475   5.184361
     7  C   -0.000370   0.010092  -0.069595   0.262982   0.006028  -0.056239
     8  C   -0.000113   0.000212  -0.034559  -0.069397   0.000083   0.010214
     9  C   -0.000388   0.010210   0.010133  -0.056297  -0.000054   0.442189
    10  C    0.000000  -0.000014   0.000217   0.010131   0.000005   0.010226
    11  H    0.000000   0.000000   0.000032  -0.000165   0.000000   0.000287
    12  C    0.000000   0.000000  -0.000112  -0.000364   0.000000  -0.000388
    13  C    0.000000   0.000005   0.000083   0.006037   0.000010  -0.000054
    14  H    0.000113  -0.009300  -0.040211   0.004285  -0.000004   0.348538
    15  H    0.343789  -0.039439   0.003868   0.001045  -0.034785  -0.000136
    16  H   -0.050845   0.359257  -0.048066   0.005184   0.005279  -0.010576
    17  H   -0.070574   0.003272   0.000947   0.003468   0.371605   0.000028
    18  H    0.000002  -0.000197   0.003468   0.000544   0.000000  -0.040839
    19  H    0.000000   0.000000   0.000000   0.000036   0.000000   0.000002
    20  H    0.000000   0.000000   0.000007  -0.000090  -0.000001  -0.000001
    21  N   -0.024702  -0.054359  -0.069723   0.457498   0.505556   0.009186
    22  N   -0.000015  -0.000077   0.005543  -0.076771   0.000485  -0.000401
               7          8          9         10         11         12
     1  C   -0.000370  -0.000113  -0.000388   0.000000   0.000000   0.000000
     2  C    0.010092   0.000212   0.010210  -0.000014   0.000000   0.000000
     3  C   -0.069595  -0.034559   0.010133   0.000217   0.000032  -0.000112
     4  C    0.262982  -0.069397  -0.056297   0.010131  -0.000165  -0.000364
     5  C    0.006028   0.000083  -0.000054   0.000005   0.000000   0.000000
     6  C   -0.056239   0.010214   0.442189   0.010226   0.000287  -0.000388
     7  C    5.051291   0.405629  -0.002271  -0.042653   0.005204  -0.045315
     8  C    0.405629   4.858272   0.383742   0.459762  -0.048085   0.007890
     9  C   -0.002271   0.383742   5.184744  -0.087816  -0.010603   0.009232
    10  C   -0.042653   0.459762  -0.087816   5.085076   0.359220   0.501266
    11  H    0.005204  -0.048085  -0.010603   0.359220   0.596970  -0.050865
    12  C   -0.045315   0.007890   0.009232   0.501266  -0.050865   5.022638
    13  C   -0.054402  -0.045393   0.000472  -0.027384   0.005285   0.449488
    14  H    0.000542   0.003466  -0.040802  -0.000196  -0.000008   0.000002
    15  H    0.000037   0.000000   0.000002   0.000000   0.000000   0.000000
    16  H   -0.000164   0.000032   0.000286   0.000000   0.000000   0.000000
    17  H   -0.000089   0.000007  -0.000001   0.000000   0.000000   0.000000
    18  H    0.004297  -0.040235   0.348499  -0.009342   0.007221   0.000115
    19  H    0.001047   0.003878  -0.000136  -0.039430  -0.006497   0.343696
    20  H    0.003456   0.000949   0.000028   0.003259  -0.000189  -0.070427
    21  N   -0.076751   0.005569  -0.000396  -0.000079   0.000001  -0.000015
    22  N    0.457483  -0.069705   0.009180  -0.054448  -0.000329  -0.024648
              13         14         15         16         17         18
     1  C    0.000000   0.000113   0.343789  -0.050845  -0.070574   0.000002
     2  C    0.000005  -0.009300  -0.039439   0.359257   0.003272  -0.000197
     3  C    0.000083  -0.040211   0.003868  -0.048066   0.000947   0.003468
     4  C    0.006037   0.004285   0.001045   0.005184   0.003468   0.000544
     5  C    0.000010  -0.000004  -0.034785   0.005279   0.371605   0.000000
     6  C   -0.000054   0.348538  -0.000136  -0.010576   0.000028  -0.040839
     7  C   -0.054402   0.000542   0.000037  -0.000164  -0.000089   0.004297
     8  C   -0.045393   0.003466   0.000000   0.000032   0.000007  -0.040235
     9  C    0.000472  -0.040802   0.000002   0.000286  -0.000001   0.348499
    10  C   -0.027384  -0.000196   0.000000   0.000000   0.000000  -0.009342
    11  H    0.005285  -0.000008   0.000000   0.000000   0.000000   0.007221
    12  C    0.449488   0.000002   0.000000   0.000000   0.000000   0.000115
    13  C    4.835298   0.000000   0.000000   0.000000  -0.000001  -0.000004
    14  H    0.000000   0.595131  -0.000017   0.007191   0.000000  -0.005302
    15  H    0.000000  -0.000017   0.587238  -0.006476  -0.001572   0.000000
    16  H    0.000000   0.007191  -0.006476   0.596872  -0.000190  -0.000008
    17  H   -0.000001   0.000000  -0.001572  -0.000190   0.599980   0.000000
    18  H   -0.000004  -0.005302   0.000000  -0.000008   0.000000   0.595321
    19  H   -0.034788   0.000000   0.000000   0.000000   0.000000  -0.000017
    20  H    0.371629   0.000000   0.000000   0.000000   0.000000   0.000000
    21  N    0.000484  -0.000116   0.004547  -0.000329  -0.052078   0.000005
    22  N    0.505034   0.000005   0.000000   0.000001   0.000003  -0.000116
              19         20         21         22
     1  C    0.000000   0.000000  -0.024702  -0.000015
     2  C    0.000000   0.000000  -0.054359  -0.000077
     3  C    0.000000   0.000007  -0.069723   0.005543
     4  C    0.000036  -0.000090   0.457498  -0.076771
     5  C    0.000000  -0.000001   0.505556   0.000485
     6  C    0.000002  -0.000001   0.009186  -0.000401
     7  C    0.001047   0.003456  -0.076751   0.457483
     8  C    0.003878   0.000949   0.005569  -0.069705
     9  C   -0.000136   0.000028  -0.000396   0.009180
    10  C   -0.039430   0.003259  -0.000079  -0.054448
    11  H   -0.006497  -0.000189   0.000001  -0.000329
    12  C    0.343696  -0.070427  -0.000015  -0.024648
    13  C   -0.034788   0.371629   0.000484   0.505034
    14  H    0.000000   0.000000  -0.000116   0.000005
    15  H    0.000000   0.000000   0.004547   0.000000
    16  H    0.000000   0.000000  -0.000329   0.000001
    17  H    0.000000   0.000000  -0.052078   0.000003
    18  H   -0.000017   0.000000   0.000005  -0.000116
    19  H    0.587392  -0.001566   0.000000   0.004542
    20  H   -0.001566   0.599575   0.000003  -0.052019
    21  N    0.000000   0.000003   6.642952   0.004448
    22  N    0.004542  -0.052019   0.004448   6.643863
 Mulliken charges:
               1
     1  C   -0.142026
     2  C   -0.167805
     3  C    0.167424
     4  C    0.139546
     5  C   -0.011954
     6  C   -0.199881
     7  C    0.139763
     8  C    0.167782
     9  C   -0.199954
    10  C   -0.167800
    11  H    0.142521
    12  C   -0.142192
    13  C   -0.011800
    14  H    0.136682
    15  H    0.141899
    16  H    0.142551
    17  H    0.145194
    18  H    0.136586
    19  H    0.141840
    20  H    0.145386
    21  N   -0.351703
    22  N   -0.352058
 Sum of Mulliken charges =   0.00000
 Mulliken charges with hydrogens summed into heavy atoms:
               1
     1  C   -0.000127
     2  C   -0.025254
     3  C    0.167424
     4  C    0.139546
     5  C    0.133240
     6  C   -0.063199
     7  C    0.139763
     8  C    0.167782
     9  C   -0.063368
    10  C   -0.025279
    12  C   -0.000353
    13  C    0.133586
    21  N   -0.351703
    22  N   -0.352058
 Electronic spatial extent (au):  <R**2>=           2498.7510
 Charge=              0.0000 electrons
 Dipole moment (field-independent basis, Debye):
    X=              0.0002    Y=              3.1544    Z=              0.0058  Tot=              3.1544
 Quadrupole moment (field-independent basis, Debye-Ang):
   XX=            -59.2107   YY=            -76.4522   ZZ=            -81.9858
   XY=             -0.0019   XZ=             -0.0008   YZ=              0.0009
 Traceless Quadrupole moment (field-independent basis, Debye-Ang):
   XX=             13.3389   YY=             -3.9027   ZZ=             -9.4362
   XY=             -0.0019   XZ=             -0.0008   YZ=              0.0009
 Octapole moment (field-independent basis, Debye-Ang**2):
  XXX=             -0.0039  YYY=             19.0004  ZZZ=              0.0069  XYY=              0.0003
  XXY=             -7.5214  XXZ=              0.0647  XZZ=              0.0029  YZZ=             -3.6920
  YYZ=              0.0565  XYZ=             -0.0886
 Hexadecapole moment (field-independent basis, Debye-Ang**3):
 XXXX=          -2084.5298 YYYY=           -880.9758 ZZZZ=            -81.3895 XXXY=             -0.0183
 XXXZ=              0.1777 YYYX=             -0.0687 YYYZ=              0.0400 ZZZX=              0.0074
 ZZZY=             -0.0024 XXYY=           -481.7958 XXZZ=           -449.8633 YYZZ=           -177.8288
 XXYZ=             -0.0898 YYXZ=             -0.0384 ZZXY=              0.0020
 N-N= 7.858898518515D+02 E-N=-2.899206335203D+03  KE= 5.677301494031D+02
 Leave Link  601 at Thu Feb 27 01:57:13 2020, MaxMem=   268435456 cpu:         4.0
 (Enter /opt/gaussian/g09/l9999.exe)
 1\1\GINC-NODE105\SP\RPW91PW91 TD-FC\6-31G(d)\C12H8N2\ROOT\27-Feb-2020\
 0\\#p PW91PW91/6-31G(d) 5d TD=(nstate=20) scf(conver=7) gfinput gfprin
 t\\phenanthroline-1\\0,1\C,0,-6.039258707,-2.317804837,0.525605008\C,0
 ,-4.76896299,-2.830635742,0.686632585\C,0,-3.651002802,-1.99898215,0.4
 66252574\C,0,-3.897141124,-0.646647306,0.080335809\C,0,-6.168249115,-0
 .970516576,0.137141736\C,0,-2.313784334,-2.47656194,0.620916129\C,0,-2
 .760561931,0.232510638,-0.15271474\C,0,-1.444044431,-0.29026995,0.0194
 18852\C,0,-1.24911381,-1.650931514,0.408500609\C,0,-0.359179034,0.5808
 83988,-0.210167932\H,0,0.659990283,0.207179533,-0.086244131\C,0,-0.602
 816676,1.88391793,-0.590347635\C,0,-1.941435323,2.29699252,-0.73239929
 5\H,0,-2.162766508,-3.517724351,0.915989991\H,0,-6.926293852,-2.931590
 061,0.686307101\H,0,-4.610144737,-3.870585188,0.982039634\H,0,-7.16513
 3785,-0.538216045,-0.001595554\H,0,-0.226483885,-2.016540902,0.5286125
 59\H,0,0.213006672,2.583637685,-0.778875621\H,0,-2.164029394,3.3262025
 61,-1.033495415\N,0,-5.147689186,-0.154101051,-0.079438177\N,0,-2.9903
 04642,1.514482746,-0.522774107\\Version=ES64L-G09RevD.01\State=1-A\HF=
 -571.3859833\RMSD=8.820e-08\PG=C01 [X(C12H8N2)]\\@


 The cat could very well be man's best friend
 but would never stoop to admitting it.
                               -- Doug Larson
 Job cpu time:       0 days  0 hours 30 minutes 18.3 seconds.
 File lengths (MBytes):  RWF=    179 Int=      0 D2E=      0 Chk=     34 Scr=      1
 Normal termination of Gaussian 09 at Thu Feb 27 01:57:13 2020.
